 Entering Gaussian System, Link 0=/mnt/gpfs3_amd/share/apps/amd/gaussian/g16-A.03/g16/g16
 Input=opt_groundState.com
 Output=opt_groundState.log
 Initial command:
 /mnt/gpfs3_amd/share/apps/amd/gaussian/g16-A.03/g16/l1.exe "/scratch/rdu230/d3tales/high_throughput/runfiles/90ZYYG/gaussian/gas_phase/opt/Gau-1842870.inp" -scrdir="/scratch/rdu230/d3tales/high_throughput/runfiles/90ZYYG/gaussian/gas_phase/opt/"
 Entering Link 1 = /mnt/gpfs3_amd/share/apps/amd/gaussian/g16-A.03/g16/l1.exe PID=   1842871.
  
 Copyright (c) 1988,1990,1992,1993,1995,1998,2003,2009,2016,
            Gaussian, Inc.  All Rights Reserved.
  
 This is part of the Gaussian(R) 16 program.  It is based on
 the Gaussian(R) 09 system (copyright 2009, Gaussian, Inc.),
 the Gaussian(R) 03 system (copyright 2003, Gaussian, Inc.),
 the Gaussian(R) 98 system (copyright 1998, Gaussian, Inc.),
 the Gaussian(R) 94 system (copyright 1995, Gaussian, Inc.),
 the Gaussian 92(TM) system (copyright 1992, Gaussian, Inc.),
 the Gaussian 90(TM) system (copyright 1990, Gaussian, Inc.),
 the Gaussian 88(TM) system (copyright 1988, Gaussian, Inc.),
 the Gaussian 86(TM) system (copyright 1986, Carnegie Mellon
 University), and the Gaussian 82(TM) system (copyright 1983,
 Carnegie Mellon University). Gaussian is a federally registered
 trademark of Gaussian, Inc.
  
 This software contains proprietary and confidential information,
 including trade secrets, belonging to Gaussian, Inc.
  
 This software is provided under written license and may be
 used, copied, transmitted, or stored only in accord with that
 written license.
  
 The following legend is applicable only to US Government
 contracts under FAR:
  
                    RESTRICTED RIGHTS LEGEND
  
 Use, reproduction and disclosure by the US Government is
 subject to restrictions as set forth in subparagraphs (a)
 and (c) of the Commercial Computer Software - Restricted
 Rights clause in FAR 52.227-19.
  
 Gaussian, Inc.
 340 Quinnipiac St., Bldg. 40, Wallingford CT 06492
  
  
 ---------------------------------------------------------------
 Warning -- This program may not be used in any manner that
 competes with the business of Gaussian, Inc. or will provide
 assistance to any competitor of Gaussian, Inc.  The licensee
 of this program is prohibited from giving any competitor of
 Gaussian, Inc. access to this program.  By using this program,
 the user acknowledges that Gaussian, Inc. is engaged in the
 business of creating and licensing software in the field of
 computational chemistry and represents and warrants to the
 licensee that it is not a competitor of Gaussian, Inc. and that
 it will not use this program in any manner prohibited above.
 ---------------------------------------------------------------
  

 Cite this work as:
 Gaussian 16, Revision A.03,
 M. J. Frisch, G. W. Trucks, H. B. Schlegel, G. E. Scuseria, 
 M. A. Robb, J. R. Cheeseman, G. Scalmani, V. Barone, 
 G. A. Petersson, H. Nakatsuji, X. Li, M. Caricato, A. V. Marenich, 
 J. Bloino, B. G. Janesko, R. Gomperts, B. Mennucci, H. P. Hratchian, 
 J. V. Ortiz, A. F. Izmaylov, J. L. Sonnenberg, D. Williams-Young, 
 F. Ding, F. Lipparini, F. Egidi, J. Goings, B. Peng, A. Petrone, 
 T. Henderson, D. Ranasinghe, V. G. Zakrzewski, J. Gao, N. Rega, 
 G. Zheng, W. Liang, M. Hada, M. Ehara, K. Toyota, R. Fukuda, 
 J. Hasegawa, M. Ishida, T. Nakajima, Y. Honda, O. Kitao, H. Nakai, 
 T. Vreven, K. Throssell, J. A. Montgomery, Jr., J. E. Peralta, 
 F. Ogliaro, M. J. Bearpark, J. J. Heyd, E. N. Brothers, K. N. Kudin, 
 V. N. Staroverov, T. A. Keith, R. Kobayashi, J. Normand, 
 K. Raghavachari, A. P. Rendell, J. C. Burant, S. S. Iyengar, 
 J. Tomasi, M. Cossi, J. M. Millam, M. Klene, C. Adamo, R. Cammi, 
 J. W. Ochterski, R. L. Martin, K. Morokuma, O. Farkas, 
 J. B. Foresman, and D. J. Fox, Gaussian, Inc., Wallingford CT, 2016.
 
 ******************************************
 Gaussian 16:  AM64L-G16RevA.03 25-Dec-2016
                13-Oct-2021 
 ******************************************
 %chk=opt_groundState.chk
 %mem=48GB
 %nprocshared=16
 Will use up to   16 processor via shared memory.
 ----------------------------------------------------------------------
 #P LC-wHPBE/Def2SVP iop(3/107=0156500000, 3/108=0156500000) opt scf(ma
 xcyc=512)
 ----------------------------------------------------------------------
 1/18=20,19=15,26=3,38=1/1,3;
 2/9=110,12=2,17=6,18=5,40=1/2;
 3/5=43,7=101,11=2,25=1,30=1,71=1,74=-71,107=156500000,108=156500000/1,2,3;
 4//1;
 5/5=2,7=512,38=5/2;
 6/7=2,8=2,9=2,10=2,28=1/1;
 7//1,2,3,16;
 1/18=20,19=15,26=3/3(2);
 2/9=110/2;
 99//99;
 2/9=110/2;
 3/5=43,7=101,11=2,25=1,30=1,71=1,74=-71,107=156500000,108=156500000/1,2,3;
 4/5=5,16=3,69=1/1;
 5/5=2,7=512,38=5/2;
 7//1,2,3,16;
 1/18=20,19=15,26=3/3(-5);
 2/9=110/2;
 6/7=2,8=2,9=2,10=2,19=2,28=1/1;
 99/9=1/99;
 Leave Link    1 at Wed Oct 13 11:57:52 2021, MaxMem=  6442450944 cpu:               6.1 elap:               0.4
 (Enter /mnt/gpfs3_amd/share/apps/amd/gaussian/g16-A.03/g16/l101.exe)
 -------
 H14 C12
 -------
 Symbolic Z-matrix:
 Charge =  0 Multiplicity = 1
 C                    -1.04064   1.16043   0.26511 
 C                    -0.36735   0.05405   0.09528 
 C                     1.10201   0.10255   0.11203 
 C                     1.82787  -1.08107  -0.03841 
 C                     3.22161  -1.05078  -0.0307 
 C                     3.92958   0.10672   0.12048 
 C                     3.22017   1.26675   0.2681 
 C                     1.81834   1.23941   0.26064 
 C                    -1.04257  -1.25147  -0.11999 
 C                    -2.46101  -1.16853  -0.5664 
 C                    -2.91688   0.21796  -0.90689 
 C                    -2.51889   1.13237   0.25213 
 H                    -0.5569    2.10588   0.41721 
 H                     1.3147   -2.01921  -0.15668 
 H                     3.78138  -1.98328  -0.1494 
 H                     5.01001   0.14997   0.12902 
 H                     3.77219   2.18842   0.38852 
 H                     1.37554   2.19744   0.38231 
 H                    -0.50333  -1.81308  -0.93759 
 H                    -1.00368  -1.81096   0.83715 
 H                    -3.15942  -1.54973   0.23286 
 H                    -2.69517  -1.81199  -1.45604 
 H                    -2.34183   0.56545  -1.78129 
 H                    -4.00082   0.2415   -1.08174 
 H                    -2.83616   0.67331   1.22647 
 H                    -2.92876   2.13791   0.11346 
 
 ITRead=  0  0  0  0  0  0  0  0  0  0  0  0  0  0  0  0  0  0  0  0
 ITRead=  0  0  0  0  0  0
 MicOpt= -1 -1 -1 -1 -1 -1 -1 -1 -1 -1 -1 -1 -1 -1 -1 -1 -1 -1 -1 -1
 MicOpt= -1 -1 -1 -1 -1 -1
 NAtoms=     26 NQM=       26 NQMF=       0 NMMI=      0 NMMIF=      0
                NMic=       0 NMicF=      0.
                    Isotopes and Nuclear Properties:
 (Nuclear quadrupole moments (NQMom) in fm**2, nuclear magnetic moments (NMagM)
  in nuclear magnetons)

  Atom         1           2           3           4           5           6           7           8           9          10
 IAtWgt=          12          12          12          12          12          12          12          12          12          12
 AtmWgt=  12.0000000  12.0000000  12.0000000  12.0000000  12.0000000  12.0000000  12.0000000  12.0000000  12.0000000  12.0000000
 NucSpn=           0           0           0           0           0           0           0           0           0           0
 AtZEff=  -0.0000000  -0.0000000  -0.0000000  -0.0000000  -0.0000000  -0.0000000  -0.0000000  -0.0000000  -0.0000000  -0.0000000
 NQMom=    0.0000000   0.0000000   0.0000000   0.0000000   0.0000000   0.0000000   0.0000000   0.0000000   0.0000000   0.0000000
 NMagM=    0.0000000   0.0000000   0.0000000   0.0000000   0.0000000   0.0000000   0.0000000   0.0000000   0.0000000   0.0000000
 AtZNuc=   6.0000000   6.0000000   6.0000000   6.0000000   6.0000000   6.0000000   6.0000000   6.0000000   6.0000000   6.0000000

  Atom        11          12          13          14          15          16          17          18          19          20
 IAtWgt=          12          12           1           1           1           1           1           1           1           1
 AtmWgt=  12.0000000  12.0000000   1.0078250   1.0078250   1.0078250   1.0078250   1.0078250   1.0078250   1.0078250   1.0078250
 NucSpn=           0           0           1           1           1           1           1           1           1           1
 AtZEff=  -0.0000000  -0.0000000  -0.0000000  -0.0000000  -0.0000000  -0.0000000  -0.0000000  -0.0000000  -0.0000000  -0.0000000
 NQMom=    0.0000000   0.0000000   0.0000000   0.0000000   0.0000000   0.0000000   0.0000000   0.0000000   0.0000000   0.0000000
 NMagM=    0.0000000   0.0000000   2.7928460   2.7928460   2.7928460   2.7928460   2.7928460   2.7928460   2.7928460   2.7928460
 AtZNuc=   6.0000000   6.0000000   1.0000000   1.0000000   1.0000000   1.0000000   1.0000000   1.0000000   1.0000000   1.0000000

  Atom        21          22          23          24          25          26
 IAtWgt=           1           1           1           1           1           1
 AtmWgt=   1.0078250   1.0078250   1.0078250   1.0078250   1.0078250   1.0078250
 NucSpn=           1           1           1           1           1           1
 AtZEff=  -0.0000000  -0.0000000  -0.0000000  -0.0000000  -0.0000000  -0.0000000
 NQMom=    0.0000000   0.0000000   0.0000000   0.0000000   0.0000000   0.0000000
 NMagM=    2.7928460   2.7928460   2.7928460   2.7928460   2.7928460   2.7928460
 AtZNuc=   1.0000000   1.0000000   1.0000000   1.0000000   1.0000000   1.0000000
 Leave Link  101 at Wed Oct 13 11:57:52 2021, MaxMem=  6442450944 cpu:               3.0 elap:               0.2
 (Enter /mnt/gpfs3_amd/share/apps/amd/gaussian/g16-A.03/g16/l103.exe)

 GradGradGradGradGradGradGradGradGradGradGradGradGradGradGradGradGradGrad
 Berny optimization.
 Initialization pass.
                           ----------------------------
                           !    Initial Parameters    !
                           ! (Angstroms and Degrees)  !
 --------------------------                            --------------------------
 ! Name  Definition              Value          Derivative Info.                !
 --------------------------------------------------------------------------------
 ! R1    R(1,2)                  1.3062         estimate D2E/DX2                !
 ! R2    R(1,12)                 1.4786         estimate D2E/DX2                !
 ! R3    R(1,13)                 1.0729         estimate D2E/DX2                !
 ! R4    R(2,3)                  1.4703         estimate D2E/DX2                !
 ! R5    R(2,9)                  1.4855         estimate D2E/DX2                !
 ! R6    R(3,4)                  1.3966         estimate D2E/DX2                !
 ! R7    R(3,8)                  1.3519         estimate D2E/DX2                !
 ! R8    R(4,5)                  1.3941         estimate D2E/DX2                !
 ! R9    R(4,14)                 1.0758         estimate D2E/DX2                !
 ! R10   R(5,6)                  1.3652         estimate D2E/DX2                !
 ! R11   R(5,15)                 1.0941         estimate D2E/DX2                !
 ! R12   R(6,7)                  1.3677         estimate D2E/DX2                !
 ! R13   R(6,16)                 1.0813         estimate D2E/DX2                !
 ! R14   R(7,8)                  1.4021         estimate D2E/DX2                !
 ! R15   R(7,17)                 1.0811         estimate D2E/DX2                !
 ! R16   R(8,18)                 1.0624         estimate D2E/DX2                !
 ! R17   R(9,10)                 1.4893         estimate D2E/DX2                !
 ! R18   R(9,19)                 1.129          estimate D2E/DX2                !
 ! R19   R(9,20)                 1.1093         estimate D2E/DX2                !
 ! R20   R(10,11)                1.4987         estimate D2E/DX2                !
 ! R21   R(10,21)                1.1278         estimate D2E/DX2                !
 ! R22   R(10,22)                1.1226         estimate D2E/DX2                !
 ! R23   R(11,12)                1.529          estimate D2E/DX2                !
 ! R24   R(11,23)                1.1027         estimate D2E/DX2                !
 ! R25   R(11,24)                1.0982         estimate D2E/DX2                !
 ! R26   R(12,25)                1.1228         estimate D2E/DX2                !
 ! R27   R(12,26)                1.0947         estimate D2E/DX2                !
 ! A1    A(2,1,12)             119.8756         estimate D2E/DX2                !
 ! A2    A(2,1,13)             122.17           estimate D2E/DX2                !
 ! A3    A(12,1,13)            117.9544         estimate D2E/DX2                !
 ! A4    A(1,2,3)              119.0587         estimate D2E/DX2                !
 ! A5    A(1,2,9)              121.9338         estimate D2E/DX2                !
 ! A6    A(3,2,9)              119.0071         estimate D2E/DX2                !
 ! A7    A(2,3,4)              119.3556         estimate D2E/DX2                !
 ! A8    A(2,3,8)              123.9548         estimate D2E/DX2                !
 ! A9    A(4,3,8)              116.6891         estimate D2E/DX2                !
 ! A10   A(3,4,5)              120.039          estimate D2E/DX2                !
 ! A11   A(3,4,14)             120.1965         estimate D2E/DX2                !
 ! A12   A(5,4,14)             119.764          estimate D2E/DX2                !
 ! A13   A(4,5,6)              122.5119         estimate D2E/DX2                !
 ! A14   A(4,5,15)             119.4979         estimate D2E/DX2                !
 ! A15   A(6,5,15)             117.9902         estimate D2E/DX2                !
 ! A16   A(5,6,7)              117.5205         estimate D2E/DX2                !
 ! A17   A(5,6,16)             123.5674         estimate D2E/DX2                !
 ! A18   A(7,6,16)             118.9122         estimate D2E/DX2                !
 ! A19   A(6,7,8)              120.0961         estimate D2E/DX2                !
 ! A20   A(6,7,17)             118.0515         estimate D2E/DX2                !
 ! A21   A(8,7,17)             121.8524         estimate D2E/DX2                !
 ! A22   A(3,8,7)              123.1435         estimate D2E/DX2                !
 ! A23   A(3,8,18)             123.3713         estimate D2E/DX2                !
 ! A24   A(7,8,18)             113.4852         estimate D2E/DX2                !
 ! A25   A(2,9,10)             115.3028         estimate D2E/DX2                !
 ! A26   A(2,9,19)             108.9665         estimate D2E/DX2                !
 ! A27   A(2,9,20)             107.5946         estimate D2E/DX2                !
 ! A28   A(10,9,19)            105.398          estimate D2E/DX2                !
 ! A29   A(10,9,20)            108.6684         estimate D2E/DX2                !
 ! A30   A(19,9,20)            110.9277         estimate D2E/DX2                !
 ! A31   A(9,10,11)            114.1617         estimate D2E/DX2                !
 ! A32   A(9,10,21)            111.0104         estimate D2E/DX2                !
 ! A33   A(9,10,22)            113.8446         estimate D2E/DX2                !
 ! A34   A(11,10,21)           106.5794         estimate D2E/DX2                !
 ! A35   A(11,10,22)           106.6651         estimate D2E/DX2                !
 ! A36   A(21,10,22)           103.81           estimate D2E/DX2                !
 ! A37   A(10,11,12)           107.5703         estimate D2E/DX2                !
 ! A38   A(10,11,23)           108.2427         estimate D2E/DX2                !
 ! A39   A(10,11,24)           110.8685         estimate D2E/DX2                !
 ! A40   A(12,11,23)           106.0738         estimate D2E/DX2                !
 ! A41   A(12,11,24)           111.3948         estimate D2E/DX2                !
 ! A42   A(23,11,24)           112.4392         estimate D2E/DX2                !
 ! A43   A(1,12,11)            106.1552         estimate D2E/DX2                !
 ! A44   A(1,12,25)            106.4184         estimate D2E/DX2                !
 ! A45   A(1,12,26)            110.9783         estimate D2E/DX2                !
 ! A46   A(11,12,25)           109.8598         estimate D2E/DX2                !
 ! A47   A(11,12,26)           110.8457         estimate D2E/DX2                !
 ! A48   A(25,12,26)           112.314          estimate D2E/DX2                !
 ! D1    D(12,1,2,3)          -179.973          estimate D2E/DX2                !
 ! D2    D(12,1,2,9)             0.2852         estimate D2E/DX2                !
 ! D3    D(13,1,2,3)            -0.0249         estimate D2E/DX2                !
 ! D4    D(13,1,2,9)          -179.7666         estimate D2E/DX2                !
 ! D5    D(2,1,12,11)          -42.9596         estimate D2E/DX2                !
 ! D6    D(2,1,12,25)           74.0461         estimate D2E/DX2                !
 ! D7    D(2,1,12,26)         -163.4806         estimate D2E/DX2                !
 ! D8    D(13,1,12,11)         137.0901         estimate D2E/DX2                !
 ! D9    D(13,1,12,25)        -105.9042         estimate D2E/DX2                !
 ! D10   D(13,1,12,26)          16.5691         estimate D2E/DX2                !
 ! D11   D(1,2,3,4)            178.5487         estimate D2E/DX2                !
 ! D12   D(1,2,3,8)             -1.7482         estimate D2E/DX2                !
 ! D13   D(9,2,3,4)             -1.7019         estimate D2E/DX2                !
 ! D14   D(9,2,3,8)            178.0012         estimate D2E/DX2                !
 ! D15   D(1,2,9,10)            19.0608         estimate D2E/DX2                !
 ! D16   D(1,2,9,19)           137.2922         estimate D2E/DX2                !
 ! D17   D(1,2,9,20)          -102.3622         estimate D2E/DX2                !
 ! D18   D(3,2,9,10)          -160.6811         estimate D2E/DX2                !
 ! D19   D(3,2,9,19)           -42.4496         estimate D2E/DX2                !
 ! D20   D(3,2,9,20)            77.8959         estimate D2E/DX2                !
 ! D21   D(2,3,4,5)            179.7123         estimate D2E/DX2                !
 ! D22   D(2,3,4,14)            -0.5288         estimate D2E/DX2                !
 ! D23   D(8,3,4,5)             -0.012          estimate D2E/DX2                !
 ! D24   D(8,3,4,14)           179.7469         estimate D2E/DX2                !
 ! D25   D(2,3,8,7)           -179.7032         estimate D2E/DX2                !
 ! D26   D(2,3,8,18)             0.2562         estimate D2E/DX2                !
 ! D27   D(4,3,8,7)              0.0071         estimate D2E/DX2                !
 ! D28   D(4,3,8,18)           179.9665         estimate D2E/DX2                !
 ! D29   D(3,4,5,6)              0.0092         estimate D2E/DX2                !
 ! D30   D(3,4,5,15)          -179.9914         estimate D2E/DX2                !
 ! D31   D(14,4,5,6)          -179.7508         estimate D2E/DX2                !
 ! D32   D(14,4,5,15)            0.2487         estimate D2E/DX2                !
 ! D33   D(4,5,6,7)             -0.0006         estimate D2E/DX2                !
 ! D34   D(4,5,6,16)           179.999          estimate D2E/DX2                !
 ! D35   D(15,5,6,7)           180.0            estimate D2E/DX2                !
 ! D36   D(15,5,6,16)           -0.0004         estimate D2E/DX2                !
 ! D37   D(5,6,7,8)             -0.0046         estimate D2E/DX2                !
 ! D38   D(5,6,7,17)           179.9958         estimate D2E/DX2                !
 ! D39   D(16,6,7,8)           179.9958         estimate D2E/DX2                !
 ! D40   D(16,6,7,17)           -0.0038         estimate D2E/DX2                !
 ! D41   D(6,7,8,3)              0.0013         estimate D2E/DX2                !
 ! D42   D(6,7,8,18)          -179.9618         estimate D2E/DX2                !
 ! D43   D(17,7,8,3)          -179.9991         estimate D2E/DX2                !
 ! D44   D(17,7,8,18)            0.0378         estimate D2E/DX2                !
 ! D45   D(2,9,10,11)            8.0115         estimate D2E/DX2                !
 ! D46   D(2,9,10,21)         -112.4737         estimate D2E/DX2                !
 ! D47   D(2,9,10,22)          130.8263         estimate D2E/DX2                !
 ! D48   D(19,9,10,11)        -112.1932         estimate D2E/DX2                !
 ! D49   D(19,9,10,21)         127.3216         estimate D2E/DX2                !
 ! D50   D(19,9,10,22)          10.6215         estimate D2E/DX2                !
 ! D51   D(20,9,10,11)         128.8523         estimate D2E/DX2                !
 ! D52   D(20,9,10,21)           8.3671         estimate D2E/DX2                !
 ! D53   D(20,9,10,22)        -108.3329         estimate D2E/DX2                !
 ! D54   D(9,10,11,12)         -49.4598         estimate D2E/DX2                !
 ! D55   D(9,10,11,23)          64.7553         estimate D2E/DX2                !
 ! D56   D(9,10,11,24)        -171.4804         estimate D2E/DX2                !
 ! D57   D(21,10,11,12)         73.4673         estimate D2E/DX2                !
 ! D58   D(21,10,11,23)       -172.3175         estimate D2E/DX2                !
 ! D59   D(21,10,11,24)        -48.5533         estimate D2E/DX2                !
 ! D60   D(22,10,11,12)       -176.1004         estimate D2E/DX2                !
 ! D61   D(22,10,11,23)        -61.8853         estimate D2E/DX2                !
 ! D62   D(22,10,11,24)         61.879          estimate D2E/DX2                !
 ! D63   D(10,11,12,1)          65.9936         estimate D2E/DX2                !
 ! D64   D(10,11,12,25)        -48.6839         estimate D2E/DX2                !
 ! D65   D(10,11,12,26)       -173.3996         estimate D2E/DX2                !
 ! D66   D(23,11,12,1)         -49.662          estimate D2E/DX2                !
 ! D67   D(23,11,12,25)       -164.3395         estimate D2E/DX2                !
 ! D68   D(23,11,12,26)         70.9449         estimate D2E/DX2                !
 ! D69   D(24,11,12,1)        -172.3132         estimate D2E/DX2                !
 ! D70   D(24,11,12,25)         73.0093         estimate D2E/DX2                !
 ! D71   D(24,11,12,26)        -51.7063         estimate D2E/DX2                !
 --------------------------------------------------------------------------------
 Trust Radius=3.00D-01 FncErr=1.00D-07 GrdErr=1.00D-06 EigMax=2.50D+02 EigMin=1.00D-04
 Number of steps in this run=    156 maximum allowed number of steps=    156.
 GradGradGradGradGradGradGradGradGradGradGradGradGradGradGradGradGradGrad

 Leave Link  103 at Wed Oct 13 11:57:52 2021, MaxMem=  6442450944 cpu:               0.1 elap:               0.0
 (Enter /mnt/gpfs3_amd/share/apps/amd/gaussian/g16-A.03/g16/l202.exe)
                          Input orientation:                          
 ---------------------------------------------------------------------
 Center     Atomic      Atomic             Coordinates (Angstroms)
 Number     Number       Type             X           Y           Z
 ---------------------------------------------------------------------
      1          6           0       -1.040644    1.160430    0.265110
      2          6           0       -0.367350    0.054045    0.095282
      3          6           0        1.102011    0.102554    0.112030
      4          6           0        1.827868   -1.081073   -0.038411
      5          6           0        3.221606   -1.050777   -0.030703
      6          6           0        3.929576    0.106722    0.120476
      7          6           0        3.220173    1.266747    0.268102
      8          6           0        1.818335    1.239407    0.260642
      9          6           0       -1.042567   -1.251469   -0.119985
     10          6           0       -2.461013   -1.168528   -0.566404
     11          6           0       -2.916884    0.217961   -0.906888
     12          6           0       -2.518888    1.132371    0.252134
     13          1           0       -0.556896    2.105875    0.417206
     14          1           0        1.314703   -2.019211   -0.156678
     15          1           0        3.781380   -1.983278   -0.149403
     16          1           0        5.010012    0.149965    0.129015
     17          1           0        3.772190    2.188424    0.388519
     18          1           0        1.375538    2.197435    0.382308
     19          1           0       -0.503326   -1.813076   -0.937585
     20          1           0       -1.003675   -1.810964    0.837150
     21          1           0       -3.159417   -1.549734    0.232859
     22          1           0       -2.695172   -1.811993   -1.456041
     23          1           0       -2.341828    0.565447   -1.781291
     24          1           0       -4.000818    0.241495   -1.081745
     25          1           0       -2.836161    0.673311    1.226468
     26          1           0       -2.928757    2.137913    0.113457
 ---------------------------------------------------------------------
                    Distance matrix (angstroms):
                    1          2          3          4          5
     1  C    0.000000
     2  C    1.306237   0.000000
     3  C    2.394474   1.470257   0.000000
     4  C    3.653056   2.474944   1.396594   0.000000
     5  C    4.810792   3.757274   2.417277   1.394089   0.000000
     6  C    5.082746   4.297323   2.827581   2.419355   1.365240
     7  C    4.262144   3.790888   2.422047   2.746766   2.336708
     8  C    2.860073   2.491916   1.351902   2.339690   2.701665
     9  C    2.442449   1.485471   2.546846   2.876645   4.269827
    10  C    2.851826   2.513153   3.843314   4.322144   5.709028
    11  C    2.404601   2.744328   4.147654   4.995439   6.329175
    12  C    1.478567   2.411743   3.767103   4.886516   6.148122
    13  H    1.072852   2.085562   2.618855   4.006410   4.943900
    14  H    3.979407   2.681637   2.149262   1.075838   2.142432
    15  H    5.771190   4.628446   3.405593   2.154647   1.094073
    16  H    6.135960   5.378323   3.908325   3.416069   2.160020
    17  H    4.922943   4.666621   3.399582   3.827828   3.312297
    18  H    2.631929   2.777438   2.129881   3.336199   3.758913
    19  H    3.252218   2.138094   2.710800   2.603614   3.908792
    20  H    3.026182   2.105596   2.936199   3.052373   4.379960
    21  H    3.440237   3.222836   4.572136   5.016597   6.405925
    22  H    3.812496   3.362656   4.532432   4.796020   6.133457
    23  H    2.496966   2.771574   3.957141   4.809888   6.052151
    24  H    3.379510   3.823953   5.242449   6.067233   7.412022
    25  H    2.094129   2.785337   4.132425   5.141104   6.422577
    26  H    2.131535   3.302066   4.515504   5.745469   6.929321
                    6          7          8          9         10
     6  C    0.000000
     7  C    1.367737   0.000000
     8  C    2.399992   1.402124   0.000000
     9  C    5.159914   4.966183   3.812362   0.000000
    10  C    6.552686   6.237214   4.979455   1.489348   0.000000
    11  C    6.924006   6.335931   4.982848   2.508287   1.498699
    12  C    6.530848   5.740656   4.338552   2.828549   2.442845
    13  H    4.920680   3.872030   2.533180   3.434561   3.913421
    14  H    3.381415   3.822143   3.323611   2.479414   3.891988
    15  H    2.112557   3.324444   3.795706   4.879229   6.309134
    16  H    1.081335   2.114254   3.375057   6.217695   7.618284
    17  H    2.104780   1.081070   2.175899   5.939135   7.143796
    18  H    3.311004   2.069276   1.062398   4.241989   5.191232
    19  H    4.945274   4.980305   4.017899   1.129005   2.094220
    20  H    5.341171   5.257092   4.195339   1.109349   2.122857
    21  H    7.280817   6.973735   5.705970   2.166683   1.127789
    22  H    7.074896   6.887860   5.712249   2.197803   1.122645
    23  H    6.569449   5.968893   4.683019   2.783739   2.120572
    24  H    8.022135   7.417273   6.054781   3.450387   2.150521
    25  H    6.878913   6.160342   4.787235   2.955451   2.597594
    26  H    7.152798   6.212261   4.833618   3.885887   3.407866
                   11         12         13         14         15
    11  C    0.000000
    12  C    1.529012   0.000000
    13  H    3.299544   2.196445   0.000000
    14  H    4.845006   4.979560   4.566022   0.000000
    15  H    7.091261   7.040020   5.988560   2.466949   0.000000
    16  H    7.994586   7.593722   5.907546   4.294445   2.477454
    17  H    7.092568   6.380557   4.329968   4.903129   4.206250
    18  H    4.899513   4.039537   1.934917   4.251389   4.852747
    19  H    3.154571   3.762124   4.146867   1.989356   4.359920
    20  H    3.289160   3.361746   3.964542   2.530995   4.888735
    21  H    2.117213   2.757596   4.491167   4.515517   6.964822
    22  H    2.114578   3.408551   4.840555   4.220235   6.609264
    23  H    1.102731   2.118389   3.223707   4.763407   6.830281
    24  H    1.098199   2.183806   4.193252   5.849898   8.147483
    25  H    2.182903   1.122820   2.811084   5.137357   7.262392
    26  H    2.174272   1.094687   2.391446   5.946563   7.879039
                   16         17         18         19         20
    16  H    0.000000
    17  H    2.398929   0.000000
    18  H    4.179198   2.396677   0.000000
    19  H    5.948787   6.004214   4.621303   0.000000
    20  H    6.364835   6.245419   4.683460   1.843919   0.000000
    21  H    8.345018   7.876880   5.884677   2.914465   2.254026
    22  H    8.107499   7.825120   6.002143   2.252329   2.849542
    23  H    7.607328   6.687552   4.600365   3.122387   3.780769
    24  H    9.092270   8.146893   5.905451   4.058878   4.108237
    25  H    7.939819   6.831400   4.557847   4.038238   3.111462
    26  H    8.183901   6.706780   4.313094   4.753706   4.452337
                   21         22         23         24         25
    21  H    0.000000
    22  H    1.771069   0.000000
    23  H    3.033025   2.425461   0.000000
    24  H    2.375845   2.462036   1.829360   0.000000
    25  H    2.456356   3.659572   3.050019   2.621209   0.000000
    26  H    3.696783   4.256717   2.531246   2.484799   1.841854
                   26
    26  H    0.000000
 Stoichiometry    C12H14
 Framework group  C1[X(C12H14)]
 Deg. of freedom    72
 Full point group                 C1      NOp   1
 Largest Abelian subgroup         C1      NOp   1
 Largest concise Abelian subgroup C1      NOp   1
                         Standard orientation:                         
 ---------------------------------------------------------------------
 Center     Atomic      Atomic             Coordinates (Angstroms)
 Number     Number       Type             X           Y           Z
 ---------------------------------------------------------------------
      1          6           0       -1.264050   -1.201059   -0.202794
      2          6           0       -0.631153   -0.058593   -0.181184
      3          6           0        0.835421   -0.056527   -0.077201
      4          6           0        1.520580    1.160429   -0.084315
      5          6           0        2.910665    1.179283    0.019553
      6          6           0        3.653739    0.039357    0.130415
      7          6           0        2.984231   -1.153293    0.137356
      8          6           0        1.586158   -1.175391    0.033153
      9          6           0       -1.350035    1.239362   -0.252926
     10          6           0       -2.797901    1.185022    0.091874
     11          6           0       -3.249472   -0.135884    0.637210
     12          6           0       -2.738721   -1.224224   -0.307527
     13          1           0       -0.748970   -2.140552   -0.147510
     14          1           0        0.979095    2.085754   -0.173734
     15          1           0        3.438404    2.137639    0.013203
     16          1           0        4.731984    0.034085    0.211923
     17          1           0        3.564244   -2.061405    0.224703
     18          1           0        1.175781   -2.155184    0.050022
     19          1           0       -0.891414    1.954432    0.490710
     20          1           0       -1.245772    1.623656   -1.288350
     21          1           0       -3.437244    1.395083   -0.813125
     22          1           0       -3.117582    1.965492    0.832820
     23          1           0       -2.739882   -0.304038    1.600568
     24          1           0       -4.343252   -0.167318    0.730472
     25          1           0       -2.985766   -0.954540   -1.369112
     26          1           0       -3.136396   -2.204001   -0.024276
 ---------------------------------------------------------------------
 Rotational constants (GHZ):           2.6057317           0.5448177           0.4645268
 Leave Link  202 at Wed Oct 13 11:57:52 2021, MaxMem=  6442450944 cpu:               0.1 elap:               0.0
 (Enter /mnt/gpfs3_amd/share/apps/amd/gaussian/g16-A.03/g16/l301.exe)
 Standard basis: def2SVP (5D, 7F)
 Ernie: Thresh=  0.10000D-02 Tol=  0.10000D-05 Strict=F.
 There are   250 symmetry adapted cartesian basis functions of A   symmetry.
 There are   238 symmetry adapted basis functions of A   symmetry.
   238 basis functions,   398 primitive gaussians,   250 cartesian basis functions
    43 alpha electrons       43 beta electrons
       nuclear repulsion energy       659.1285126672 Hartrees.
 IExCor=33909 DFT=T Ex+Corr=LC-wHPBE ExCW=0 ScaHFX=  1.000000
 ScaDFX=  1.000000  1.000000  1.000000  1.000000 ScalE2=  1.000000  1.000000
 IRadAn=      5 IRanWt=     -1 IRanGd=            0 ICorTp=0 IEmpDi=  4
 HFx  wShort=  0.000000 wLong=  0.156500 cFull=  0.000000 cShort=  0.000000 cLong=  1.000000
 DFx  wShort=  0.000000 wLong=  0.156500 cFull=  0.000000 cShort=  1.000000 cLong=  0.000000
 NAtoms=   26 NActive=   26 NUniq=   26 SFac= 1.00D+00 NAtFMM=   60 NAOKFM=F Big=F
 Integral buffers will be    131072 words long.
 Raffenetti 2 integral format.
 Two-electron integral symmetry is turned on.
 Leave Link  301 at Wed Oct 13 11:57:52 2021, MaxMem=  6442450944 cpu:               0.4 elap:               0.0
 (Enter /mnt/gpfs3_amd/share/apps/amd/gaussian/g16-A.03/g16/l302.exe)
 NPDir=0 NMtPBC=     1 NCelOv=     1 NCel=       1 NClECP=     1 NCelD=      1
         NCelK=      1 NCelE2=     1 NClLst=     1 CellRange=     0.0.
 One-electron integrals computed using PRISM.
 One-electron integral symmetry used in STVInt
   1 Symmetry operations used in ECPInt.
 ECPInt:  NShTT=    6555 NPrTT=   23203 LenC2=    6313 LenP2D=   17065.
 LDataN:  DoStor=T MaxTD1= 4 Len=   56
 NBasis=   238 RedAO= T EigKep=  2.59D-04  NBF=   238
 NBsUse=   238 1.00D-06 EigRej= -1.00D+00 NBFU=   238
 Precomputing XC quadrature grid using
 IXCGrd= 4 IRadAn=           5 IRanWt=          -1 IRanGd=           0 AccXCQ= 0.00D+00.
 Generated NRdTot=       0 NPtTot=           0 NUsed=           0 NTot=          32
 NSgBfM=   249   249   249   249   249 MxSgAt=    26 MxSgA2=    26.
 Leave Link  302 at Wed Oct 13 11:57:52 2021, MaxMem=  6442450944 cpu:               5.4 elap:               0.4
 (Enter /mnt/gpfs3_amd/share/apps/amd/gaussian/g16-A.03/g16/l303.exe)
 DipDrv:  MaxL=1.
 Leave Link  303 at Wed Oct 13 11:57:52 2021, MaxMem=  6442450944 cpu:               0.3 elap:               0.0
 (Enter /mnt/gpfs3_amd/share/apps/amd/gaussian/g16-A.03/g16/l401.exe)
 ExpMin= 1.22D-01 ExpMax= 1.24D+03 ExpMxC= 1.86D+02 IAcc=3 IRadAn=         5 AccDes= 0.00D+00
 Harris functional with IExCor=33909 and IRadAn=       5 diagonalized for initial guess.
 HarFok:  IExCor=33909 AccDes= 0.00D+00 IRadAn=         5 IDoV= 1 UseB2=F ITyADJ=14
 ICtDFT=  3500011 ScaDFX=  1.000000  1.000000  1.000000  1.000000
 FoFCou: FMM=F IPFlag=           0 FMFlag=      100000 FMFlg1=           0
         NFxFlg=           0 DoJE=T BraDBF=F KetDBF=T FulRan=T
         wScrn=  0.000000 ICntrl=       500 IOpCl=  0 I1Cent=   200000004 NGrid=           0
         NMat0=    1 NMatS0=      1 NMatT0=    0 NMatD0=    1 NMtDS0=    0 NMtDT0=    0
 Petite list used in FoFCou.
 Harris En= -457.710018313931    
 JPrj=0 DoOrth=F DoCkMO=F.
 Leave Link  401 at Wed Oct 13 11:57:54 2021, MaxMem=  6442450944 cpu:              29.7 elap:               1.9
 (Enter /mnt/gpfs3_amd/share/apps/amd/gaussian/g16-A.03/g16/l502.exe)
 Integral symmetry usage will be decided dynamically.
 Closed shell SCF:
 Using DIIS extrapolation, IDIIS=  1040.
 NGot=  6442450944 LenX=  6442319114 LenY=  6442256173
 Requested convergence on RMS density matrix=1.00D-08 within 512 cycles.
 Requested convergence on MAX density matrix=1.00D-06.
 Requested convergence on             energy=1.00D-06.
 No special actions if energy rises.
 Fock matrices will be formed incrementally for  20 cycles.
 Integral accuracy reduced to 1.0D-05 until final iterations.

 Cycle   1  Pass 0  IDiag  1:
 FoFJK:  IHMeth= 1 ICntrl=       0 DoSepK=T KAlg= 0 I1Cent=           0 FoldK=F
 IRaf=         1 NMat=       1 IRICut=       1 DoRegI=T DoRafI=F ISym2E= 0 IDoP0=0 IntGTp=1.
 FoFCou: FMM=F IPFlag=           0 FMFlag=      100000 FMFlg1=           0
         NFxFlg=           0 DoJE=T BraDBF=F KetDBF=F FulRan=T
         wScrn=  0.000000 ICntrl=       500 IOpCl=  0 I1Cent=           0 NGrid=           0
         NMat0=    1 NMatS0=      1 NMatT0=    0 NMatD0=    1 NMtDS0=    0 NMtDT0=    0
 Symmetry not used in FoFCou.
 E= -464.608021333595    
 DIIS: error= 2.72D-02 at cycle   1 NSaved=   1.
 NSaved= 1 IEnMin= 1 EnMin= -464.608021333595     IErMin= 1 ErrMin= 2.72D-02
 ErrMax= 2.72D-02  0.00D+00 EMaxC= 1.00D-01 BMatC= 2.06D-01 BMatP= 2.06D-01
 IDIUse=3 WtCom= 7.28D-01 WtEn= 2.72D-01
 Coeff-Com:  0.100D+01
 Coeff-En:   0.100D+01
 Coeff:      0.100D+01
 Gap=     0.281 Goal=   None    Shift=    0.000
 GapD=    0.281 DampG=1.000 DampE=0.500 DampFc=0.5000 IDamp=-1.
 Damping current iteration by 5.00D-01
 RMSDP=4.94D-03 MaxDP=1.06D-01              OVMax= 1.28D-01

 Cycle   2  Pass 0  IDiag  1:
 RMSU=  2.32D-03    CP:  9.61D-01
 E= -464.733502965016     Delta-E=       -0.125481631421 Rises=F Damp=T
 DIIS: error= 4.19D-03 at cycle   2 NSaved=   2.
 NSaved= 2 IEnMin= 2 EnMin= -464.733502965016     IErMin= 2 ErrMin= 4.19D-03
 ErrMax= 4.19D-03  0.00D+00 EMaxC= 1.00D-01 BMatC= 7.24D-03 BMatP= 2.06D-01
 IDIUse=3 WtCom= 9.58D-01 WtEn= 4.19D-02
 Coeff-Com: -0.137D-01 0.101D+01
 Coeff-En:   0.000D+00 0.100D+01
 Coeff:     -0.131D-01 0.101D+01
 Gap=     0.295 Goal=   None    Shift=    0.000
 RMSDP=1.19D-03 MaxDP=2.86D-02 DE=-1.25D-01 OVMax= 6.22D-02

 Cycle   3  Pass 0  IDiag  1:
 RMSU=  1.15D-03    CP:  9.50D-01  1.08D+00
 E= -464.858187204183     Delta-E=       -0.124684239167 Rises=F Damp=F
 DIIS: error= 1.86D-03 at cycle   3 NSaved=   3.
 NSaved= 3 IEnMin= 3 EnMin= -464.858187204183     IErMin= 3 ErrMin= 1.86D-03
 ErrMax= 1.86D-03  0.00D+00 EMaxC= 1.00D-01 BMatC= 1.96D-03 BMatP= 7.24D-03
 IDIUse=3 WtCom= 9.81D-01 WtEn= 1.86D-02
 Coeff-Com: -0.243D-01 0.331D+00 0.694D+00
 Coeff-En:   0.000D+00 0.000D+00 0.100D+01
 Coeff:     -0.238D-01 0.325D+00 0.699D+00
 Gap=     0.289 Goal=   None    Shift=    0.000
 RMSDP=3.39D-04 MaxDP=7.34D-03 DE=-1.25D-01 OVMax= 1.22D-02

 Cycle   4  Pass 0  IDiag  1:
 RMSU=  2.59D-04    CP:  9.50D-01  1.11D+00  8.18D-01
 E= -464.859759871506     Delta-E=       -0.001572667324 Rises=F Damp=F
 DIIS: error= 7.30D-04 at cycle   4 NSaved=   4.
 NSaved= 4 IEnMin= 4 EnMin= -464.859759871506     IErMin= 4 ErrMin= 7.30D-04
 ErrMax= 7.30D-04  0.00D+00 EMaxC= 1.00D-01 BMatC= 2.80D-04 BMatP= 1.96D-03
 IDIUse=3 WtCom= 9.93D-01 WtEn= 7.30D-03
 Coeff-Com: -0.678D-02 0.777D-01 0.304D+00 0.625D+00
 Coeff-En:   0.000D+00 0.000D+00 0.190D-01 0.981D+00
 Coeff:     -0.673D-02 0.772D-01 0.302D+00 0.628D+00
 Gap=     0.289 Goal=   None    Shift=    0.000
 RMSDP=1.12D-04 MaxDP=3.01D-03 DE=-1.57D-03 OVMax= 5.71D-03

 Cycle   5  Pass 0  IDiag  1:
 RMSU=  7.73D-05    CP:  9.50D-01  1.11D+00  8.36D-01  6.99D-01
 E= -464.860020720283     Delta-E=       -0.000260848776 Rises=F Damp=F
 DIIS: error= 2.54D-04 at cycle   5 NSaved=   5.
 NSaved= 5 IEnMin= 5 EnMin= -464.860020720283     IErMin= 5 ErrMin= 2.54D-04
 ErrMax= 2.54D-04  0.00D+00 EMaxC= 1.00D-01 BMatC= 2.93D-05 BMatP= 2.80D-04
 IDIUse=3 WtCom= 9.97D-01 WtEn= 2.54D-03
 Coeff-Com: -0.377D-03 0.596D-02 0.705D-01 0.286D+00 0.638D+00
 Coeff-En:   0.000D+00 0.000D+00 0.000D+00 0.000D+00 0.100D+01
 Coeff:     -0.376D-03 0.594D-02 0.703D-01 0.285D+00 0.639D+00
 Gap=     0.289 Goal=   None    Shift=    0.000
 RMSDP=3.96D-05 MaxDP=1.39D-03 DE=-2.61D-04 OVMax= 2.44D-03

 Cycle   6  Pass 0  IDiag  1:
 RMSU=  2.67D-05    CP:  9.50D-01  1.11D+00  8.47D-01  7.54D-01  7.19D-01
 E= -464.860046389729     Delta-E=       -0.000025669446 Rises=F Damp=F
 DIIS: error= 1.06D-04 at cycle   6 NSaved=   6.
 NSaved= 6 IEnMin= 6 EnMin= -464.860046389729     IErMin= 6 ErrMin= 1.06D-04
 ErrMax= 1.06D-04  0.00D+00 EMaxC= 1.00D-01 BMatC= 4.58D-06 BMatP= 2.93D-05
 IDIUse=3 WtCom= 9.99D-01 WtEn= 1.06D-03
 Coeff-Com:  0.523D-03-0.264D-02 0.153D-01 0.109D+00 0.356D+00 0.522D+00
 Coeff-En:   0.000D+00 0.000D+00 0.000D+00 0.000D+00 0.587D-01 0.941D+00
 Coeff:      0.523D-03-0.264D-02 0.153D-01 0.109D+00 0.356D+00 0.522D+00
 Gap=     0.289 Goal=   None    Shift=    0.000
 RMSDP=1.15D-05 MaxDP=3.67D-04 DE=-2.57D-05 OVMax= 5.56D-04

 Cycle   7  Pass 0  IDiag  1:
 RMSU=  9.49D-06    CP:  9.50D-01  1.11D+00  8.48D-01  7.57D-01  7.73D-01
                    CP:  8.18D-01
 E= -464.860050923658     Delta-E=       -0.000004533929 Rises=F Damp=F
 DIIS: error= 1.93D-05 at cycle   7 NSaved=   7.
 NSaved= 7 IEnMin= 7 EnMin= -464.860050923658     IErMin= 7 ErrMin= 1.93D-05
 ErrMax= 1.93D-05  0.00D+00 EMaxC= 1.00D-01 BMatC= 8.42D-08 BMatP= 4.58D-06
 IDIUse=1 WtCom= 1.00D+00 WtEn= 0.00D+00
 Coeff-Com:  0.315D-03-0.127D-02-0.476D-02-0.793D-02 0.820D-02 0.107D+00
 Coeff-Com:  0.898D+00
 Coeff:      0.315D-03-0.127D-02-0.476D-02-0.793D-02 0.820D-02 0.107D+00
 Coeff:      0.898D+00
 Gap=     0.289 Goal=   None    Shift=    0.000
 RMSDP=3.68D-06 MaxDP=6.86D-05 DE=-4.53D-06 OVMax= 2.07D-04

 Initial convergence to 1.0D-05 achieved.  Increase integral accuracy.
 Cycle   8  Pass 1  IDiag  1:
 E= -464.860034508900     Delta-E=        0.000016414757 Rises=F Damp=F
 DIIS: error= 8.84D-05 at cycle   1 NSaved=   1.
 NSaved= 1 IEnMin= 1 EnMin= -464.860034508900     IErMin= 1 ErrMin= 8.84D-05
 ErrMax= 8.84D-05  0.00D+00 EMaxC= 1.00D-01 BMatC= 5.18D-07 BMatP= 5.18D-07
 IDIUse=1 WtCom= 1.00D+00 WtEn= 0.00D+00
 Coeff-Com:  0.100D+01
 Coeff:      0.100D+01
 Gap=     0.289 Goal=   None    Shift=    0.000
 RMSDP=3.68D-06 MaxDP=6.86D-05 DE= 1.64D-05 OVMax= 1.56D-04

 Cycle   9  Pass 1  IDiag  1:
 RMSU=  7.85D-05    CP:  1.00D+00
 E= -464.860035019350     Delta-E=       -0.000000510449 Rises=F Damp=F
 DIIS: error= 7.16D-06 at cycle   2 NSaved=   2.
 NSaved= 2 IEnMin= 2 EnMin= -464.860035019350     IErMin= 2 ErrMin= 7.16D-06
 ErrMax= 7.16D-06  0.00D+00 EMaxC= 1.00D-01 BMatC= 2.01D-08 BMatP= 5.18D-07
 IDIUse=1 WtCom= 1.00D+00 WtEn= 0.00D+00
 Coeff-Com:  0.244D-01 0.976D+00
 Coeff:      0.244D-01 0.976D+00
 Gap=     0.289 Goal=   None    Shift=    0.000
 RMSDP=5.03D-06 MaxDP=1.44D-04 DE=-5.10D-07 OVMax= 1.07D-04

 Cycle  10  Pass 1  IDiag  1:
 RMSU=  2.09D-06    CP:  1.00D+00  1.06D+00
 E= -464.860035011000     Delta-E=        0.000000008349 Rises=F Damp=F
 DIIS: error= 8.88D-06 at cycle   3 NSaved=   3.
 NSaved= 3 IEnMin= 2 EnMin= -464.860035019350     IErMin= 2 ErrMin= 7.16D-06
 ErrMax= 8.88D-06  0.00D+00 EMaxC= 1.00D-01 BMatC= 2.93D-08 BMatP= 2.01D-08
 IDIUse=1 WtCom= 1.00D+00 WtEn= 0.00D+00
 Coeff-Com: -0.253D-01 0.559D+00 0.467D+00
 Coeff:     -0.253D-01 0.559D+00 0.467D+00
 Gap=     0.289 Goal=   None    Shift=    0.000
 RMSDP=1.06D-06 MaxDP=2.50D-05 DE= 8.35D-09 OVMax= 5.31D-05

 Cycle  11  Pass 1  IDiag  1:
 RMSU=  5.33D-07    CP:  1.00D+00  1.06D+00  6.06D-01
 E= -464.860035042032     Delta-E=       -0.000000031032 Rises=F Damp=F
 DIIS: error= 9.85D-07 at cycle   4 NSaved=   4.
 NSaved= 4 IEnMin= 4 EnMin= -464.860035042032     IErMin= 4 ErrMin= 9.85D-07
 ErrMax= 9.85D-07  0.00D+00 EMaxC= 1.00D-01 BMatC= 3.14D-10 BMatP= 2.01D-08
 IDIUse=1 WtCom= 1.00D+00 WtEn= 0.00D+00
 Coeff-Com: -0.125D-01 0.252D+00 0.222D+00 0.538D+00
 Coeff:     -0.125D-01 0.252D+00 0.222D+00 0.538D+00
 Gap=     0.289 Goal=   None    Shift=    0.000
 RMSDP=1.25D-07 MaxDP=3.19D-06 DE=-3.10D-08 OVMax= 6.48D-06

 Cycle  12  Pass 1  IDiag  1:
 RMSU=  1.05D-07    CP:  1.00D+00  1.06D+00  6.24D-01  1.02D+00
 E= -464.860035042330     Delta-E=       -0.000000000298 Rises=F Damp=F
 DIIS: error= 3.29D-07 at cycle   5 NSaved=   5.
 NSaved= 5 IEnMin= 5 EnMin= -464.860035042330     IErMin= 5 ErrMin= 3.29D-07
 ErrMax= 3.29D-07  0.00D+00 EMaxC= 1.00D-01 BMatC= 2.54D-11 BMatP= 3.14D-10
 IDIUse=1 WtCom= 1.00D+00 WtEn= 0.00D+00
 Coeff-Com:  0.514D-03-0.202D-01-0.133D-01 0.198D+00 0.835D+00
 Coeff:      0.514D-03-0.202D-01-0.133D-01 0.198D+00 0.835D+00
 Gap=     0.289 Goal=   None    Shift=    0.000
 RMSDP=6.79D-08 MaxDP=1.21D-06 DE=-2.98D-10 OVMax= 2.31D-06

 Cycle  13  Pass 1  IDiag  1:
 RMSU=  3.10D-08    CP:  1.00D+00  1.06D+00  6.31D-01  1.09D+00  8.98D-01
 E= -464.860035042375     Delta-E=       -0.000000000045 Rises=F Damp=F
 DIIS: error= 9.38D-08 at cycle   6 NSaved=   6.
 NSaved= 6 IEnMin= 6 EnMin= -464.860035042375     IErMin= 6 ErrMin= 9.38D-08
 ErrMax= 9.38D-08  0.00D+00 EMaxC= 1.00D-01 BMatC= 3.72D-12 BMatP= 2.54D-11
 IDIUse=1 WtCom= 1.00D+00 WtEn= 0.00D+00
 Coeff-Com:  0.944D-03-0.239D-01-0.189D-01 0.681D-01 0.421D+00 0.553D+00
 Coeff:      0.944D-03-0.239D-01-0.189D-01 0.681D-01 0.421D+00 0.553D+00
 Gap=     0.289 Goal=   None    Shift=    0.000
 RMSDP=1.35D-08 MaxDP=4.57D-07 DE=-4.52D-11 OVMax= 1.01D-06

 Cycle  14  Pass 1  IDiag  1:
 RMSU=  1.11D-08    CP:  1.00D+00  1.06D+00  6.33D-01  1.10D+00  9.45D-01
                    CP:  9.53D-01
 E= -464.860035042388     Delta-E=       -0.000000000012 Rises=F Damp=F
 DIIS: error= 2.72D-08 at cycle   7 NSaved=   7.
 NSaved= 7 IEnMin= 7 EnMin= -464.860035042388     IErMin= 7 ErrMin= 2.72D-08
 ErrMax= 2.72D-08  0.00D+00 EMaxC= 1.00D-01 BMatC= 2.69D-13 BMatP= 3.72D-12
 IDIUse=1 WtCom= 1.00D+00 WtEn= 0.00D+00
 Coeff-Com:  0.265D-03-0.540D-02-0.487D-02-0.113D-01 0.122D-01 0.188D+00
 Coeff-Com:  0.821D+00
 Coeff:      0.265D-03-0.540D-02-0.487D-02-0.113D-01 0.122D-01 0.188D+00
 Coeff:      0.821D+00
 Gap=     0.289 Goal=   None    Shift=    0.000
 RMSDP=5.60D-09 MaxDP=1.35D-07 DE=-1.23D-11 OVMax= 4.56D-07

 SCF Done:  E(RLC-wHPBE) =  -464.860035042     A.U. after   14 cycles
            NFock= 14  Conv=0.56D-08     -V/T= 2.0101
 KE= 4.602047778158D+02 PE=-2.393717943101D+03 EE= 8.095246175752D+02
 Leave Link  502 at Wed Oct 13 11:58:35 2021, MaxMem=  6442450944 cpu:             640.8 elap:              40.6
 (Enter /mnt/gpfs3_amd/share/apps/amd/gaussian/g16-A.03/g16/l601.exe)
 Copying SCF densities to generalized density rwf, IOpCl= 0 IROHF=0.

 **********************************************************************

            Population analysis using the SCF density.

 **********************************************************************

 Orbital symmetries:
       Occupied  (A) (A) (A) (A) (A) (A) (A) (A) (A) (A) (A) (A)
                 (A) (A) (A) (A) (A) (A) (A) (A) (A) (A) (A) (A)
                 (A) (A) (A) (A) (A) (A) (A) (A) (A) (A) (A) (A)
                 (A) (A) (A) (A) (A) (A) (A)
       Virtual   (A) (A) (A) (A) (A) (A) (A) (A) (A) (A) (A) (A)
                 (A) (A) (A) (A) (A) (A) (A) (A) (A) (A) (A) (A)
                 (A) (A) (A) (A) (A) (A) (A) (A) (A) (A) (A) (A)
                 (A) (A) (A) (A) (A) (A) (A) (A) (A) (A) (A) (A)
                 (A) (A) (A) (A) (A) (A) (A) (A) (A) (A) (A) (A)
                 (A) (A) (A) (A) (A) (A) (A) (A) (A) (A) (A) (A)
                 (A) (A) (A) (A) (A) (A) (A) (A) (A) (A) (A) (A)
                 (A) (A) (A) (A) (A) (A) (A) (A) (A) (A) (A) (A)
                 (A) (A) (A) (A) (A) (A) (A) (A) (A) (A) (A) (A)
                 (A) (A) (A) (A) (A) (A) (A) (A) (A) (A) (A) (A)
                 (A) (A) (A) (A) (A) (A) (A) (A) (A) (A) (A) (A)
                 (A) (A) (A) (A) (A) (A) (A) (A) (A) (A) (A) (A)
                 (A) (A) (A) (A) (A) (A) (A) (A) (A) (A) (A) (A)
                 (A) (A) (A) (A) (A) (A) (A) (A) (A) (A) (A) (A)
                 (A) (A) (A) (A) (A) (A) (A) (A) (A) (A) (A) (A)
                 (A) (A) (A) (A) (A) (A) (A) (A) (A) (A) (A) (A)
                 (A) (A) (A)
 The electronic state is 1-A.
 Alpha  occ. eigenvalues --   -9.98594  -9.98339  -9.98076  -9.98057  -9.97874
 Alpha  occ. eigenvalues --   -9.97818  -9.97777  -9.97758  -9.97721  -9.97431
 Alpha  occ. eigenvalues --   -9.97357  -9.96820  -0.87698  -0.85366  -0.78998
 Alpha  occ. eigenvalues --   -0.76465  -0.74836  -0.73467  -0.65429  -0.63978
 Alpha  occ. eigenvalues --   -0.61028  -0.59985  -0.56315  -0.54386  -0.51371
 Alpha  occ. eigenvalues --   -0.50290  -0.49047  -0.47350  -0.45394  -0.44957
 Alpha  occ. eigenvalues --   -0.44292  -0.44187  -0.43151  -0.41874  -0.40820
 Alpha  occ. eigenvalues --   -0.38510  -0.37605  -0.36302  -0.35258  -0.34143
 Alpha  occ. eigenvalues --   -0.33258  -0.29866  -0.26835
 Alpha virt. eigenvalues --    0.02051   0.04097   0.09735   0.10308   0.12004
 Alpha virt. eigenvalues --    0.13180   0.13793   0.15545   0.16257   0.17423
 Alpha virt. eigenvalues --    0.17591   0.18953   0.19318   0.21121   0.21829
 Alpha virt. eigenvalues --    0.22655   0.23584   0.24143   0.26556   0.27659
 Alpha virt. eigenvalues --    0.29274   0.29882   0.32833   0.34254   0.35626
 Alpha virt. eigenvalues --    0.36718   0.37425   0.39238   0.41705   0.42207
 Alpha virt. eigenvalues --    0.44869   0.45461   0.46864   0.47639   0.49193
 Alpha virt. eigenvalues --    0.51120   0.51284   0.52407   0.52949   0.53585
 Alpha virt. eigenvalues --    0.53933   0.55035   0.55436   0.57313   0.58660
 Alpha virt. eigenvalues --    0.60535   0.61478   0.62721   0.63797   0.64877
 Alpha virt. eigenvalues --    0.66308   0.66883   0.67775   0.67836   0.68749
 Alpha virt. eigenvalues --    0.69096   0.69999   0.70347   0.70458   0.71062
 Alpha virt. eigenvalues --    0.72008   0.72272   0.72981   0.73730   0.74529
 Alpha virt. eigenvalues --    0.75112   0.75792   0.76276   0.76615   0.78622
 Alpha virt. eigenvalues --    0.79503   0.80685   0.81704   0.83668   0.85945
 Alpha virt. eigenvalues --    0.87011   0.87708   0.89123   0.91463   0.94751
 Alpha virt. eigenvalues --    0.98263   1.00989   1.06065   1.08834   1.12447
 Alpha virt. eigenvalues --    1.12867   1.17173   1.18963   1.21910   1.23178
 Alpha virt. eigenvalues --    1.27426   1.28104   1.28287   1.30522   1.32222
 Alpha virt. eigenvalues --    1.33563   1.34216   1.35085   1.36036   1.41813
 Alpha virt. eigenvalues --    1.42878   1.43874   1.52689   1.55036   1.56686
 Alpha virt. eigenvalues --    1.57753   1.62351   1.65133   1.68751   1.70295
 Alpha virt. eigenvalues --    1.71289   1.73559   1.74954   1.75245   1.75541
 Alpha virt. eigenvalues --    1.77028   1.77831   1.79177   1.79421   1.80388
 Alpha virt. eigenvalues --    1.80716   1.81186   1.82011   1.82140   1.85132
 Alpha virt. eigenvalues --    1.86010   1.86865   1.88709   1.89373   1.90306
 Alpha virt. eigenvalues --    1.91925   1.92837   1.95050   1.95714   1.96477
 Alpha virt. eigenvalues --    1.97933   1.99344   2.00828   2.01934   2.03370
 Alpha virt. eigenvalues --    2.03777   2.05686   2.06958   2.08199   2.14179
 Alpha virt. eigenvalues --    2.15777   2.18260   2.19252   2.19608   2.20666
 Alpha virt. eigenvalues --    2.21553   2.24134   2.25802   2.26288   2.30170
 Alpha virt. eigenvalues --    2.32134   2.33740   2.34733   2.36245   2.37356
 Alpha virt. eigenvalues --    2.38588   2.41854   2.44561   2.46663   2.52536
 Alpha virt. eigenvalues --    2.54267   2.59640   2.61350   2.62105   2.64411
 Alpha virt. eigenvalues --    2.65242   2.65419   2.69385   2.72290   2.73878
 Alpha virt. eigenvalues --    2.74536   2.76419   2.78234   2.81132   2.82295
 Alpha virt. eigenvalues --    2.88541   2.90569   2.92645   2.93043   2.94432
 Alpha virt. eigenvalues --    2.97661   3.00430   3.01874   3.08341   3.08967
 Alpha virt. eigenvalues --    3.14357   3.18847   3.28215   3.43019   3.70867
          Condensed to atoms (all electrons):
               1          2          3          4          5          6
     1  C    5.168138   0.563497  -0.047325   0.028026  -0.000681   0.000025
     2  C    0.563497   5.269669   0.169992  -0.103539   0.026625  -0.002749
     3  C   -0.047325   0.169992   5.475739   0.203647   0.128310  -0.188142
     4  C    0.028026  -0.103539   0.203647   5.353375   0.209448   0.125802
     5  C   -0.000681   0.026625   0.128310   0.209448   5.185082   0.195360
     6  C    0.000025  -0.002749  -0.188142   0.125802   0.195360   5.172059
     7  C   -0.000131   0.025142   0.127137  -0.167915   0.138704   0.222958
     8  C   -0.047992  -0.123881   0.184892   0.017503  -0.192457   0.134326
     9  C   -0.139004   0.404886  -0.066895  -0.029398  -0.000367  -0.000008
    10  C   -0.048772  -0.040987   0.015493   0.001454  -0.000076   0.000003
    11  C   -0.048849  -0.003123   0.000737  -0.000191   0.000000  -0.000000
    12  C    0.325890  -0.041931   0.021997  -0.000525   0.000013   0.000004
    13  H    0.399628  -0.010614  -0.050438  -0.000647  -0.000004  -0.000103
    14  H    0.000376  -0.042009  -0.065301   0.449639  -0.081589   0.017081
    15  H    0.000011  -0.000554   0.018234  -0.075812   0.439893  -0.085731
    16  H    0.000000   0.000055  -0.001969   0.016791  -0.089451   0.454917
    17  H    0.000034  -0.000366   0.020422  -0.001854   0.019421  -0.085404
    18  H    0.010461  -0.042167  -0.075389   0.019323  -0.002150   0.019391
    19  H    0.006937   0.012091  -0.025438   0.009638   0.001536  -0.000078
    20  H   -0.001187   0.011657  -0.005287   0.006512   0.000120   0.000000
    21  H    0.002522  -0.004731  -0.001062   0.000004   0.000003  -0.000000
    22  H    0.002426   0.001312  -0.000149  -0.000055  -0.000003  -0.000000
    23  H    0.007162  -0.007493  -0.001921   0.000024   0.000001  -0.000000
    24  H    0.007151   0.002560   0.000059  -0.000000  -0.000000   0.000000
    25  H    0.006041  -0.024680  -0.000921   0.000012  -0.000001  -0.000000
    26  H   -0.011262   0.013318  -0.000698   0.000019  -0.000000   0.000000
               7          8          9         10         11         12
     1  C   -0.000131  -0.047992  -0.139004  -0.048772  -0.048849   0.325890
     2  C    0.025142  -0.123881   0.404886  -0.040987  -0.003123  -0.041931
     3  C    0.127137   0.184892  -0.066895   0.015493   0.000737   0.021997
     4  C   -0.167915   0.017503  -0.029398   0.001454  -0.000191  -0.000525
     5  C    0.138704  -0.192457  -0.000367  -0.000076   0.000000   0.000013
     6  C    0.222958   0.134326  -0.000008   0.000003  -0.000000   0.000004
     7  C    5.131431   0.217651  -0.000132   0.000004   0.000001  -0.000096
     8  C    0.217651   5.429077   0.022272  -0.000339  -0.000027   0.000897
     9  C   -0.000132   0.022272   4.839498   0.333943  -0.060410  -0.052961
    10  C    0.000004  -0.000339   0.333943   4.718889   0.459310  -0.025611
    11  C    0.000001  -0.000027  -0.060410   0.459310   4.568187   0.444257
    12  C   -0.000096   0.000897  -0.052961  -0.025611   0.444257   4.692764
    13  H    0.002006   0.010359   0.013602   0.000298   0.004953  -0.064987
    14  H   -0.002262   0.019503   0.014145   0.000882   0.000037  -0.000056
    15  H    0.017853  -0.001333   0.000009  -0.000000   0.000000  -0.000000
    16  H   -0.081019   0.018675   0.000000   0.000000   0.000000   0.000000
    17  H    0.444214  -0.080423   0.000008  -0.000000   0.000000  -0.000001
    18  H   -0.077176   0.449668  -0.000609  -0.000013  -0.000033   0.000715
    19  H   -0.000033  -0.001033   0.325542  -0.019309   0.000493   0.001158
    20  H    0.000007  -0.000876   0.310182  -0.002400   0.002187   0.002162
    21  H   -0.000000   0.000000   0.006173   0.327311  -0.017855  -0.011324
    22  H    0.000000   0.000009  -0.014155   0.351014  -0.012843   0.007852
    23  H    0.000002  -0.000105  -0.015178  -0.011074   0.360752  -0.039558
    24  H   -0.000000   0.000002   0.010143  -0.015358   0.352644  -0.014486
    25  H    0.000005   0.000053  -0.003666  -0.001730  -0.031137   0.338802
    26  H   -0.000000   0.000029   0.002802   0.005081  -0.006252   0.334121
              13         14         15         16         17         18
     1  C    0.399628   0.000376   0.000011   0.000000   0.000034   0.010461
     2  C   -0.010614  -0.042009  -0.000554   0.000055  -0.000366  -0.042167
     3  C   -0.050438  -0.065301   0.018234  -0.001969   0.020422  -0.075389
     4  C   -0.000647   0.449639  -0.075812   0.016791  -0.001854   0.019323
     5  C   -0.000004  -0.081589   0.439893  -0.089451   0.019421  -0.002150
     6  C   -0.000103   0.017081  -0.085731   0.454917  -0.085404   0.019391
     7  C    0.002006  -0.002262   0.017853  -0.081019   0.444214  -0.077176
     8  C    0.010359   0.019503  -0.001333   0.018675  -0.080423   0.449668
     9  C    0.013602   0.014145   0.000009   0.000000   0.000008  -0.000609
    10  C    0.000298   0.000882  -0.000000   0.000000  -0.000000  -0.000013
    11  C    0.004953   0.000037   0.000000   0.000000   0.000000  -0.000033
    12  C   -0.064987  -0.000056  -0.000000   0.000000  -0.000001   0.000715
    13  H    0.728472  -0.000070   0.000001   0.000000   0.000078  -0.004428
    14  H   -0.000070   0.724735  -0.014975  -0.000261   0.000035  -0.000303
    15  H    0.000001  -0.014975   0.735124  -0.015057  -0.000513   0.000048
    16  H    0.000000  -0.000261  -0.015057   0.735642  -0.016467  -0.000478
    17  H    0.000078   0.000035  -0.000513  -0.016467   0.739911  -0.017177
    18  H   -0.004428  -0.000303   0.000048  -0.000478  -0.017177   0.761598
    19  H   -0.000396   0.003230   0.000057  -0.000000   0.000000   0.000027
    20  H   -0.000425   0.002040   0.000004  -0.000000  -0.000000   0.000038
    21  H    0.000048  -0.000023   0.000000   0.000000   0.000000  -0.000000
    22  H    0.000091  -0.000037  -0.000000  -0.000000   0.000000   0.000000
    23  H    0.002387  -0.000007   0.000000   0.000000   0.000000  -0.000015
    24  H   -0.000513  -0.000000  -0.000000  -0.000000  -0.000000   0.000001
    25  H    0.005874  -0.000002   0.000000   0.000000   0.000000  -0.000018
    26  H   -0.014154   0.000002   0.000000  -0.000000  -0.000000   0.000070
              19         20         21         22         23         24
     1  C    0.006937  -0.001187   0.002522   0.002426   0.007162   0.007151
     2  C    0.012091   0.011657  -0.004731   0.001312  -0.007493   0.002560
     3  C   -0.025438  -0.005287  -0.001062  -0.000149  -0.001921   0.000059
     4  C    0.009638   0.006512   0.000004  -0.000055   0.000024  -0.000000
     5  C    0.001536   0.000120   0.000003  -0.000003   0.000001  -0.000000
     6  C   -0.000078   0.000000  -0.000000  -0.000000  -0.000000   0.000000
     7  C   -0.000033   0.000007  -0.000000   0.000000   0.000002  -0.000000
     8  C   -0.001033  -0.000876   0.000000   0.000009  -0.000105   0.000002
     9  C    0.325542   0.310182   0.006173  -0.014155  -0.015178   0.010143
    10  C   -0.019309  -0.002400   0.327311   0.351014  -0.011074  -0.015358
    11  C    0.000493   0.002187  -0.017855  -0.012843   0.360752   0.352644
    12  C    0.001158   0.002162  -0.011324   0.007852  -0.039558  -0.014486
    13  H   -0.000396  -0.000425   0.000048   0.000091   0.002387  -0.000513
    14  H    0.003230   0.002040  -0.000023  -0.000037  -0.000007  -0.000000
    15  H    0.000057   0.000004   0.000000  -0.000000   0.000000  -0.000000
    16  H   -0.000000  -0.000000   0.000000  -0.000000   0.000000  -0.000000
    17  H    0.000000  -0.000000   0.000000   0.000000   0.000000  -0.000000
    18  H    0.000027   0.000038  -0.000000   0.000000  -0.000015   0.000001
    19  H    0.682276  -0.026297   0.007665  -0.022051   0.002144  -0.000603
    20  H   -0.026297   0.682348  -0.022692   0.004357  -0.000008  -0.000158
    21  H    0.007665  -0.022692   0.730454  -0.030164   0.010552  -0.012067
    22  H   -0.022051   0.004357  -0.030164   0.708662  -0.010794  -0.004104
    23  H    0.002144  -0.000008   0.010552  -0.010794   0.705087  -0.028389
    24  H   -0.000603  -0.000158  -0.012067  -0.004104  -0.028389   0.702368
    25  H   -0.000217   0.002160   0.008128   0.000502   0.010499  -0.005118
    26  H    0.000049  -0.000144   0.000425  -0.000598  -0.007057  -0.006412
              25         26
     1  C    0.006041  -0.011262
     2  C   -0.024680   0.013318
     3  C   -0.000921  -0.000698
     4  C    0.000012   0.000019
     5  C   -0.000001  -0.000000
     6  C   -0.000000   0.000000
     7  C    0.000005  -0.000000
     8  C    0.000053   0.000029
     9  C   -0.003666   0.002802
    10  C   -0.001730   0.005081
    11  C   -0.031137  -0.006252
    12  C    0.338802   0.334121
    13  H    0.005874  -0.014154
    14  H   -0.000002   0.000002
    15  H    0.000000   0.000000
    16  H    0.000000  -0.000000
    17  H    0.000000  -0.000000
    18  H   -0.000018   0.000070
    19  H   -0.000217   0.000049
    20  H    0.002160  -0.000144
    21  H    0.008128   0.000425
    22  H    0.000502  -0.000598
    23  H    0.010499  -0.007057
    24  H   -0.005118  -0.006412
    25  H    0.691851  -0.027236
    26  H   -0.027236   0.715154
 Mulliken charges:
               1
     1  C   -0.183123
     2  C   -0.051981
     3  C    0.164276
     4  C   -0.061281
     5  C    0.022263
     6  C    0.020288
     7  C    0.001648
     8  C   -0.056450
     9  C    0.099578
    10  C   -0.048015
    11  C   -0.012838
    12  C    0.080904
    13  H   -0.021017
    14  H   -0.024809
    15  H   -0.017258
    16  H   -0.021378
    17  H   -0.021916
    18  H   -0.041381
    19  H    0.042613
    20  H    0.035700
    21  H    0.006631
    22  H    0.018728
    23  H    0.022991
    24  H    0.012282
    25  H    0.030800
    26  H    0.002744
 Sum of Mulliken charges =  -0.00000
 Mulliken charges with hydrogens summed into heavy atoms:
               1
     1  C   -0.204139
     2  C   -0.051981
     3  C    0.164276
     4  C   -0.086090
     5  C    0.005005
     6  C   -0.001090
     7  C   -0.020268
     8  C   -0.097832
     9  C    0.177891
    10  C   -0.022655
    11  C    0.022435
    12  C    0.114448
 Electronic spatial extent (au):  <R**2>=           2428.2273
 Charge=             -0.0000 electrons
 Dipole moment (field-independent basis, Debye):
    X=             -0.6457    Y=              0.0349    Z=             -0.0231  Tot=              0.6470
 Quadrupole moment (field-independent basis, Debye-Ang):
   XX=            -68.3753   YY=            -68.2525   ZZ=            -75.3573
   XY=             -0.5759   XZ=              0.7849   YZ=             -0.3981
 Traceless Quadrupole moment (field-independent basis, Debye-Ang):
   XX=              2.2864   YY=              2.4092   ZZ=             -4.6956
   XY=             -0.5759   XZ=              0.7849   YZ=             -0.3981
 Octapole moment (field-independent basis, Debye-Ang**2):
  XXX=             14.7017  YYY=             -3.9650  ZZZ=             -1.0464  XYY=              4.5186
  XXY=             -2.1059  XXZ=              1.5629  XZZ=             -8.5010  YZZ=              1.9146
  YYZ=              1.3431  XYZ=             -0.3389
 Hexadecapole moment (field-independent basis, Debye-Ang**3):
 XXXX=          -2517.3922 YYYY=           -585.3360 ZZZZ=           -140.2655 XXXY=             -5.9084
 XXXZ=             13.0608 YYYX=              3.4094 YYYZ=             -0.8697 ZZZX=              1.8785
 ZZZY=             -1.1563 XXYY=           -523.4960 XXZZ=           -486.9288 YYZZ=           -128.9443
 XXYZ=             -3.5038 YYXZ=             -1.8796 ZZXY=             -3.8491
 N-N= 6.591285126672D+02 E-N=-2.393717943400D+03  KE= 4.602047778158D+02
 No NMR shielding tensors so no spin-rotation constants.
 Leave Link  601 at Wed Oct 13 11:58:35 2021, MaxMem=  6442450944 cpu:               2.2 elap:               0.2
 (Enter /mnt/gpfs3_amd/share/apps/amd/gaussian/g16-A.03/g16/l701.exe)
 ... and contract with generalized density number  0.
 Compute integral first derivatives.
   1 Symmetry operations used in ECPInt.
 ECPInt:  NShTT=    6555 NPrTT=   23203 LenC2=    6313 LenP2D=   17065.
 LDataN:  DoStor=T MaxTD1= 5 Len=  102
 Leave Link  701 at Wed Oct 13 11:58:35 2021, MaxMem=  6442450944 cpu:               2.9 elap:               0.2
 (Enter /mnt/gpfs3_amd/share/apps/amd/gaussian/g16-A.03/g16/l702.exe)
 L702 exits ... SP integral derivatives will be done elsewhere.
 Leave Link  702 at Wed Oct 13 11:58:35 2021, MaxMem=  6442450944 cpu:               0.1 elap:               0.0
 (Enter /mnt/gpfs3_amd/share/apps/amd/gaussian/g16-A.03/g16/l703.exe)
 Integral derivatives from FoFJK, PRISM(SPDF).
 Compute integral first derivatives, UseDBF=F ICtDFT=           0.
 Calling FoFJK, ICntrl=      2127 FMM=F ISym2X=0 I1Cent= 0 IOpClX= 0 NMat=1 NMatS=1 NMatT=0.
 FoFJK:  IHMeth= 1 ICntrl=    2127 DoSepK=T KAlg= 0 I1Cent=           0 FoldK=F
 IRaf=         1 NMat=       1 IRICut=       1 DoRegI=T DoRafI=F ISym2E= 0 IDoP0=0 IntGTp=1.
 FoFCou: FMM=F IPFlag=           0 FMFlag=      100000 FMFlg1=         800
         NFxFlg=           0 DoJE=F BraDBF=F KetDBF=F FulRan=T
         wScrn=  0.000000 ICntrl=      2527 IOpCl=  0 I1Cent=           0 NGrid=           0
         NMat0=    1 NMatS0=      1 NMatT0=    0 NMatD0=    1 NMtDS0=    0 NMtDT0=    0
 Symmetry not used in FoFCou.
 Leave Link  703 at Wed Oct 13 11:58:46 2021, MaxMem=  6442450944 cpu:             167.8 elap:              10.6
 (Enter /mnt/gpfs3_amd/share/apps/amd/gaussian/g16-A.03/g16/l716.exe)
 Dipole        =-2.54018625D-01 1.37345496D-02-9.09351565D-03
 ***** Axes restored to original set *****
 -------------------------------------------------------------------
 Center     Atomic                   Forces (Hartrees/Bohr)
 Number     Number              X              Y              Z
 -------------------------------------------------------------------
      1        6          -0.031215216    0.028847736    0.010099270
      2        6           0.033640024   -0.019244940   -0.005955844
      3        6          -0.017502540   -0.040869608   -0.005885587
      4        6           0.016352493    0.002528227    0.001286844
      5        6          -0.003757723   -0.037162930   -0.004782529
      6        6           0.012453205    0.007696018    0.000898771
      7        6          -0.015763234    0.009992659    0.001351528
      8        6           0.043267345    0.036108891    0.005126949
      9        6           0.018929566   -0.018848150   -0.010147363
     10        6          -0.048677157   -0.018470183   -0.005813982
     11        6           0.000197437    0.010007995    0.008579880
     12        6          -0.006324438   -0.003894485   -0.000390033
     13        1           0.009726221    0.015379100    0.003398607
     14        1          -0.004873307   -0.013692816   -0.001347931
     15        1           0.000158767   -0.006406726   -0.000725948
     16        1           0.012913656   -0.004535902   -0.000561339
     17        1           0.001529883    0.014577542    0.001829311
     18        1          -0.017636061    0.021886139    0.002658341
     19        1           0.000923478    0.002032270    0.016148363
     20        1           0.006352617   -0.006633054   -0.003618600
     21        1           0.006844929    0.001808544   -0.005529855
     22        1           0.007079521   -0.000481408    0.007497754
     23        1          -0.006181282    0.003692281   -0.008300663
     24        1          -0.004845140    0.000652671   -0.005825223
     25        1          -0.007900713    0.008478610   -0.005232369
     26        1          -0.005692332    0.006551520    0.005241647
 -------------------------------------------------------------------
 Cartesian Forces:  Max     0.048677157 RMS     0.014979592
 Leave Link  716 at Wed Oct 13 11:58:46 2021, MaxMem=  6442450944 cpu:               0.2 elap:               0.0
 (Enter /mnt/gpfs3_amd/share/apps/amd/gaussian/g16-A.03/g16/l103.exe)

 GradGradGradGradGradGradGradGradGradGradGradGradGradGradGradGradGradGrad
 Berny optimization.
 FormGI is forming the generalized inverse of G from B-inverse, IUseBI=4.
 Internal  Forces:  Max     0.063157049 RMS     0.011256715
 Search for a local minimum.
 Step number   1 out of a maximum of  156
 All quantities printed in internal units (Hartrees-Bohrs-Radians)
 RMS Force = .11257D-01 SwitMx=.10000D-02 MixMth= 1
 Mixed Optimization -- RFO/linear search
 Second derivative matrix not updated -- first step.
 ITU=  0
     Eigenvalues ---    0.00912   0.00988   0.01159   0.01561   0.01623
     Eigenvalues ---    0.02001   0.02083   0.02150   0.02185   0.02257
     Eigenvalues ---    0.02352   0.02398   0.02410   0.02533   0.02551
     Eigenvalues ---    0.03233   0.03456   0.04311   0.04974   0.05164
     Eigenvalues ---    0.05661   0.06117   0.06619   0.07258   0.07580
     Eigenvalues ---    0.08676   0.08950   0.09546   0.09756   0.11389
     Eigenvalues ---    0.12471   0.16000   0.16000   0.16000   0.16000
     Eigenvalues ---    0.16000   0.16000   0.18836   0.19328   0.22000
     Eigenvalues ---    0.22000   0.23475   0.23483   0.25000   0.25000
     Eigenvalues ---    0.28051   0.30668   0.30787   0.31130   0.31280
     Eigenvalues ---    0.31297   0.31770   0.32669   0.33382   0.33495
     Eigenvalues ---    0.33882   0.34184   0.34277   0.34346   0.35709
     Eigenvalues ---    0.35834   0.35865   0.36502   0.36872   0.38208
     Eigenvalues ---    0.41885   0.44424   0.46040   0.49242   0.50962
     Eigenvalues ---    0.53754   0.62500
 RFO step:  Lambda=-4.28848010D-02 EMin= 9.11607803D-03
 Linear search not attempted -- first point.
 Maximum step size (   0.300) exceeded in Quadratic search.
    -- Step size scaled by   0.940
 Iteration  1 RMS(Cart)=  0.06297281 RMS(Int)=  0.00056856
 Iteration  2 RMS(Cart)=  0.00067358 RMS(Int)=  0.00018212
 Iteration  3 RMS(Cart)=  0.00000053 RMS(Int)=  0.00018212
 ITry= 1 IFail=0 DXMaxC= 2.57D-01 DCOld= 1.00D+10 DXMaxT= 3.00D-01 DXLimC= 3.00D+00 Rises=F
 Variable       Old X    -DE/DX   Delta X   Delta X   Delta X     New X
                                 (Linear)    (Quad)   (Total)
    R1        2.46843   0.06316   0.00000   0.08842   0.08849   2.55692
    R2        2.79409   0.02351   0.00000   0.06020   0.06018   2.85427
    R3        2.02740   0.01842   0.00000   0.04207   0.04207   2.06947
    R4        2.77838   0.02680   0.00000   0.06298   0.06298   2.84137
    R5        2.80713   0.02225   0.00000   0.05732   0.05741   2.86454
    R6        2.63918   0.02478   0.00000   0.04598   0.04598   2.68516
    R7        2.55473   0.05673   0.00000   0.09135   0.09137   2.64610
    R8        2.63445   0.00576   0.00000   0.00956   0.00954   2.64399
    R9        2.03304   0.01441   0.00000   0.03322   0.03322   2.06626
   R10        2.57993   0.03622   0.00000   0.05975   0.05973   2.63966
   R11        2.06750   0.00562   0.00000   0.01368   0.01368   2.08118
   R12        2.58465   0.03678   0.00000   0.06223   0.06223   2.64688
   R13        2.04343   0.01272   0.00000   0.02980   0.02980   2.07322
   R14        2.64963   0.00143   0.00000   0.00383   0.00385   2.65348
   R15        2.04293   0.01341   0.00000   0.03140   0.03140   2.07433
   R16        2.00764   0.02739   0.00000   0.06059   0.06059   2.06823
   R17        2.81446   0.04193   0.00000   0.10171   0.10183   2.91629
   R18        2.13351  -0.01226   0.00000  -0.03298  -0.03298   2.10053
   R19        2.09637   0.00045   0.00000   0.00113   0.00113   2.09750
   R20        2.83213   0.02462   0.00000   0.05868   0.05875   2.89088
   R21        2.13121  -0.00877   0.00000  -0.02350  -0.02350   2.10771
   R22        2.12149  -0.00714   0.00000  -0.01887  -0.01887   2.10262
   R23        2.88941   0.00983   0.00000   0.02184   0.02153   2.91095
   R24        2.08386   0.00452   0.00000   0.01129   0.01129   2.09515
   R25        2.07530   0.00572   0.00000   0.01410   0.01410   2.08939
   R26        2.12182  -0.00577   0.00000  -0.01526  -0.01526   2.10656
   R27        2.06866   0.00749   0.00000   0.01825   0.01825   2.08691
    A1        2.09222   0.00412   0.00000   0.02717   0.02710   2.11932
    A2        2.13227  -0.00368   0.00000  -0.02109  -0.02109   2.11118
    A3        2.05869  -0.00044   0.00000  -0.00608  -0.00607   2.05262
    A4        2.07797   0.01523   0.00000   0.04408   0.04402   2.12199
    A5        2.12815  -0.01277   0.00000  -0.03131  -0.03127   2.09688
    A6        2.07707  -0.00246   0.00000  -0.01272  -0.01277   2.06429
    A7        2.08315   0.00604   0.00000   0.01867   0.01865   2.10180
    A8        2.16342  -0.00601   0.00000  -0.02000  -0.02002   2.14339
    A9        2.03661  -0.00002   0.00000   0.00137   0.00138   2.03799
   A10        2.09508   0.00684   0.00000   0.02215   0.02213   2.11720
   A11        2.09783  -0.00111   0.00000  -0.00035  -0.00034   2.09748
   A12        2.09028  -0.00574   0.00000  -0.02180  -0.02179   2.06848
   A13        2.13824  -0.00690   0.00000  -0.02846  -0.02851   2.10973
   A14        2.08563   0.00018   0.00000  -0.00092  -0.00090   2.08473
   A15        2.05932   0.00672   0.00000   0.02939   0.02941   2.08872
   A16        2.05112   0.00606   0.00000   0.02017   0.02016   2.07127
   A17        2.15666  -0.00824   0.00000  -0.03420  -0.03420   2.12246
   A18        2.07541   0.00217   0.00000   0.01403   0.01404   2.08945
   A19        2.09607   0.00027   0.00000   0.00332   0.00334   2.09941
   A20        2.06039   0.00618   0.00000   0.02761   0.02760   2.08799
   A21        2.12673  -0.00646   0.00000  -0.03093  -0.03094   2.09578
   A22        2.14926  -0.00625   0.00000  -0.01855  -0.01851   2.13075
   A23        2.15324  -0.00374   0.00000  -0.02255  -0.02257   2.13066
   A24        1.98069   0.00999   0.00000   0.04110   0.04108   2.02177
   A25        2.01241   0.00116   0.00000   0.01123   0.01104   2.02346
   A26        1.90182  -0.00364   0.00000  -0.01025  -0.01100   1.89082
   A27        1.87788   0.00043   0.00000  -0.00495  -0.00526   1.87262
   A28        1.83954   0.00758   0.00000   0.04646   0.04619   1.88573
   A29        1.89662   0.00027   0.00000   0.00816   0.00836   1.90498
   A30        1.93605  -0.00618   0.00000  -0.05397  -0.05421   1.88184
   A31        1.99250   0.00292   0.00000   0.00011   0.00027   1.99277
   A32        1.93750  -0.00079   0.00000  -0.00772  -0.00794   1.92956
   A33        1.98696  -0.00678   0.00000  -0.03400  -0.03396   1.95300
   A34        1.86016  -0.00043   0.00000   0.01380   0.01382   1.87398
   A35        1.86166   0.00441   0.00000   0.02910   0.02894   1.89060
   A36        1.81183   0.00093   0.00000   0.00247   0.00188   1.81371
   A37        1.87746   0.00395   0.00000   0.01006   0.00945   1.88690
   A38        1.88919   0.00016   0.00000   0.00922   0.00928   1.89848
   A39        1.93502  -0.00028   0.00000   0.00518   0.00514   1.94016
   A40        1.85134   0.00111   0.00000   0.00891   0.00880   1.86014
   A41        1.94421  -0.00096   0.00000   0.00779   0.00796   1.95217
   A42        1.96243  -0.00359   0.00000  -0.03905  -0.03905   1.92338
   A43        1.85276   0.00380   0.00000   0.02039   0.01963   1.87239
   A44        1.85735   0.00251   0.00000   0.02318   0.02358   1.88093
   A45        1.93694  -0.00005   0.00000   0.01180   0.01143   1.94837
   A46        1.91741  -0.00302   0.00000  -0.02001  -0.02038   1.89704
   A47        1.93462   0.00181   0.00000   0.01500   0.01481   1.94943
   A48        1.96025  -0.00461   0.00000  -0.04660  -0.04674   1.91351
    D1       -3.14112  -0.00159   0.00000  -0.00581  -0.00548   3.13658
    D2        0.00498  -0.00207   0.00000  -0.01792  -0.01768  -0.01270
    D3       -0.00043  -0.00030   0.00000   0.00765   0.00791   0.00747
    D4       -3.13752  -0.00078   0.00000  -0.00446  -0.00428   3.14138
    D5       -0.74979   0.00305   0.00000   0.03711   0.03740  -0.71239
    D6        1.29235   0.00260   0.00000   0.03495   0.03523   1.32758
    D7       -2.85327  -0.00146   0.00000  -0.00022  -0.00016  -2.85343
    D8        2.39267   0.00181   0.00000   0.02422   0.02444   2.41712
    D9       -1.84838   0.00137   0.00000   0.02206   0.02228  -1.82610
   D10        0.28918  -0.00269   0.00000  -0.01311  -0.01311   0.27608
   D11        3.11626  -0.00145   0.00000  -0.02637  -0.02648   3.08978
   D12       -0.03051  -0.00087   0.00000  -0.01776  -0.01788  -0.04839
   D13       -0.02970  -0.00101   0.00000  -0.01468  -0.01456  -0.04427
   D14        3.10671  -0.00043   0.00000  -0.00607  -0.00596   3.10075
   D15        0.33267  -0.00347   0.00000  -0.02272  -0.02261   0.31006
   D16        2.39620   0.00435   0.00000   0.03658   0.03626   2.43246
   D17       -1.78656  -0.00490   0.00000  -0.03694  -0.03680  -1.82336
   D18       -2.80441  -0.00399   0.00000  -0.03497  -0.03455  -2.83896
   D19       -0.74089   0.00382   0.00000   0.02434   0.02432  -0.71657
   D20        1.35954  -0.00542   0.00000  -0.04919  -0.04874   1.31080
   D21        3.13657   0.00025   0.00000   0.00394   0.00402   3.14060
   D22       -0.00923   0.00009   0.00000   0.00164   0.00171  -0.00752
   D23       -0.00021  -0.00027   0.00000  -0.00399  -0.00401  -0.00422
   D24        3.13718  -0.00043   0.00000  -0.00629  -0.00632   3.13085
   D25       -3.13641  -0.00025   0.00000  -0.00362  -0.00356  -3.13998
   D26        0.00447  -0.00039   0.00000  -0.00561  -0.00553  -0.00106
   D27        0.00012   0.00033   0.00000   0.00483   0.00480   0.00492
   D28        3.14101   0.00019   0.00000   0.00284   0.00283  -3.13935
   D29        0.00016   0.00004   0.00000   0.00063   0.00066   0.00082
   D30       -3.14144  -0.00003   0.00000  -0.00031  -0.00027   3.14147
   D31       -3.13724   0.00018   0.00000   0.00287   0.00288  -3.13436
   D32        0.00434   0.00012   0.00000   0.00193   0.00195   0.00629
   D33       -0.00001   0.00015   0.00000   0.00206   0.00206   0.00205
   D34        3.14157   0.00001   0.00000   0.00012   0.00016  -3.14145
   D35        3.14159   0.00021   0.00000   0.00298   0.00299  -3.13860
   D36       -0.00001   0.00007   0.00000   0.00105   0.00109   0.00108
   D37       -0.00008  -0.00009   0.00000  -0.00131  -0.00130  -0.00138
   D38        3.14152  -0.00010   0.00000  -0.00142  -0.00142   3.14010
   D39        3.14152   0.00004   0.00000   0.00053   0.00056  -3.14110
   D40       -0.00007   0.00003   0.00000   0.00042   0.00045   0.00039
   D41        0.00002  -0.00015   0.00000  -0.00225  -0.00224  -0.00222
   D42       -3.14093  -0.00002   0.00000  -0.00042  -0.00037  -3.14130
   D43       -3.14158  -0.00015   0.00000  -0.00214  -0.00213   3.13948
   D44        0.00066  -0.00002   0.00000  -0.00030  -0.00026   0.00040
   D45        0.13983  -0.00062   0.00000   0.01915   0.01946   0.15929
   D46       -1.96304  -0.00154   0.00000   0.00681   0.00717  -1.95587
   D47        2.28335   0.00224   0.00000   0.03115   0.03134   2.31469
   D48       -1.95814  -0.00209   0.00000  -0.00751  -0.00768  -1.96582
   D49        2.22218  -0.00302   0.00000  -0.01985  -0.01997   2.20221
   D50        0.18538   0.00077   0.00000   0.00449   0.00420   0.18958
   D51        2.24890   0.00092   0.00000   0.02645   0.02660   2.27550
   D52        0.14603  -0.00000   0.00000   0.01411   0.01431   0.16034
   D53       -1.89077   0.00378   0.00000   0.03845   0.03848  -1.85229
   D54       -0.86324  -0.00233   0.00000  -0.00077  -0.00062  -0.86385
   D55        1.13019   0.00104   0.00000   0.01923   0.01931   1.14950
   D56       -2.99290  -0.00353   0.00000  -0.02006  -0.01997  -3.01287
   D57        1.28225  -0.00175   0.00000  -0.00047  -0.00045   1.28180
   D58       -3.00751   0.00161   0.00000   0.01953   0.01947  -2.98804
[...]
     22          1           0       -3.360291    2.019851    0.635464
     23          1           0       -3.362303   -0.388836    1.432394
     24          1           0       -4.559185   -0.124506    0.143448
     25          1           0       -3.151937   -1.193752   -1.535246
     26          1           0       -3.072607   -2.242939   -0.120289
 ---------------------------------------------------------------------
 Rotational constants (GHZ):           2.5333799           0.5113483           0.4456058
 Leave Link  202 at Wed Oct 13 12:09:29 2021, MaxMem=  6442450944 cpu:               0.3 elap:               0.0
 (Enter /mnt/gpfs3_amd/share/apps/amd/gaussian/g16-A.03/g16/l601.exe)
 Copying SCF densities to generalized density rwf, IOpCl= 0 IROHF=0.

 **********************************************************************

            Population analysis using the SCF density.

 **********************************************************************

 Orbital symmetries:
       Occupied  (A) (A) (A) (A) (A) (A) (A) (A) (A) (A) (A) (A)
                 (A) (A) (A) (A) (A) (A) (A) (A) (A) (A) (A) (A)
                 (A) (A) (A) (A) (A) (A) (A) (A) (A) (A) (A) (A)
                 (A) (A) (A) (A) (A) (A) (A)
       Virtual   (A) (A) (A) (A) (A) (A) (A) (A) (A) (A) (A) (A)
                 (A) (A) (A) (A) (A) (A) (A) (A) (A) (A) (A) (A)
                 (A) (A) (A) (A) (A) (A) (A) (A) (A) (A) (A) (A)
                 (A) (A) (A) (A) (A) (A) (A) (A) (A) (A) (A) (A)
                 (A) (A) (A) (A) (A) (A) (A) (A) (A) (A) (A) (A)
                 (A) (A) (A) (A) (A) (A) (A) (A) (A) (A) (A) (A)
                 (A) (A) (A) (A) (A) (A) (A) (A) (A) (A) (A) (A)
                 (A) (A) (A) (A) (A) (A) (A) (A) (A) (A) (A) (A)
                 (A) (A) (A) (A) (A) (A) (A) (A) (A) (A) (A) (A)
                 (A) (A) (A) (A) (A) (A) (A) (A) (A) (A) (A) (A)
                 (A) (A) (A) (A) (A) (A) (A) (A) (A) (A) (A) (A)
                 (A) (A) (A) (A) (A) (A) (A) (A) (A) (A) (A) (A)
                 (A) (A) (A) (A) (A) (A) (A) (A) (A) (A) (A) (A)
                 (A) (A) (A) (A) (A) (A) (A) (A) (A) (A) (A) (A)
                 (A) (A) (A) (A) (A) (A) (A) (A) (A) (A) (A) (A)
                 (A) (A) (A) (A) (A) (A) (A) (A) (A) (A) (A) (A)
                 (A) (A) (A)
 The electronic state is 1-A.
 Alpha  occ. eigenvalues --   -9.99485  -9.98902  -9.98853  -9.98815  -9.98764
 Alpha  occ. eigenvalues --   -9.98752  -9.98742  -9.98733  -9.98630  -9.98383
 Alpha  occ. eigenvalues --   -9.98351  -9.98048  -0.86308  -0.83851  -0.78040
 Alpha  occ. eigenvalues --   -0.75601  -0.74836  -0.72684  -0.64675  -0.63545
 Alpha  occ. eigenvalues --   -0.61286  -0.60154  -0.55418  -0.53507  -0.50806
 Alpha  occ. eigenvalues --   -0.49003  -0.48382  -0.46572  -0.46194  -0.45030
 Alpha  occ. eigenvalues --   -0.44495  -0.43547  -0.42201  -0.41489  -0.40637
 Alpha  occ. eigenvalues --   -0.38561  -0.37763  -0.36511  -0.35605  -0.34687
 Alpha  occ. eigenvalues --   -0.31950  -0.30287  -0.26886
 Alpha virt. eigenvalues --    0.01917   0.03692   0.08126   0.10541   0.11823
 Alpha virt. eigenvalues --    0.13425   0.13783   0.15646   0.16229   0.17366
 Alpha virt. eigenvalues --    0.18234   0.18493   0.18744   0.19409   0.20128
 Alpha virt. eigenvalues --    0.21033   0.21848   0.24559   0.25508   0.27431
 Alpha virt. eigenvalues --    0.27920   0.28216   0.30781   0.33156   0.33877
 Alpha virt. eigenvalues --    0.35060   0.35815   0.36427   0.41390   0.42903
 Alpha virt. eigenvalues --    0.44342   0.45547   0.45971   0.46525   0.47152
 Alpha virt. eigenvalues --    0.49042   0.49479   0.50388   0.50758   0.52984
 Alpha virt. eigenvalues --    0.53137   0.54305   0.54877   0.57862   0.58790
 Alpha virt. eigenvalues --    0.60307   0.62205   0.62653   0.62933   0.64268
 Alpha virt. eigenvalues --    0.65188   0.65725   0.66684   0.67200   0.67814
 Alpha virt. eigenvalues --    0.68097   0.68828   0.69556   0.69902   0.70381
 Alpha virt. eigenvalues --    0.70633   0.71524   0.71893   0.72787   0.73007
 Alpha virt. eigenvalues --    0.74180   0.74778   0.74920   0.75699   0.76646
 Alpha virt. eigenvalues --    0.76956   0.77969   0.79499   0.80958   0.82787
 Alpha virt. eigenvalues --    0.83520   0.84318   0.87701   0.90966   0.92446
 Alpha virt. eigenvalues --    0.95910   0.97969   0.99144   1.04296   1.06914
 Alpha virt. eigenvalues --    1.10642   1.13400   1.14330   1.21409   1.22594
 Alpha virt. eigenvalues --    1.23241   1.25731   1.26820   1.28598   1.30295
 Alpha virt. eigenvalues --    1.30611   1.31272   1.32618   1.33958   1.34767
 Alpha virt. eigenvalues --    1.36540   1.49388   1.52585   1.55120   1.56332
 Alpha virt. eigenvalues --    1.58403   1.61416   1.67029   1.67746   1.68882
 Alpha virt. eigenvalues --    1.69731   1.70944   1.73268   1.74466   1.74956
 Alpha virt. eigenvalues --    1.75769   1.75872   1.76878   1.78130   1.78549
 Alpha virt. eigenvalues --    1.79675   1.80047   1.81767   1.82862   1.83734
 Alpha virt. eigenvalues --    1.84417   1.85278   1.86356   1.86917   1.87768
 Alpha virt. eigenvalues --    1.89012   1.89887   1.91720   1.93772   1.94649
 Alpha virt. eigenvalues --    1.95095   1.95448   1.97106   1.99270   1.99379
 Alpha virt. eigenvalues --    1.99872   2.01848   2.04043   2.05461   2.12471
 Alpha virt. eigenvalues --    2.12916   2.13330   2.15995   2.16487   2.18050
 Alpha virt. eigenvalues --    2.19558   2.22061   2.24954   2.26181   2.28291
 Alpha virt. eigenvalues --    2.29295   2.31269   2.31766   2.34203   2.35021
 Alpha virt. eigenvalues --    2.38365   2.40596   2.40982   2.45270   2.46096
 Alpha virt. eigenvalues --    2.51987   2.54180   2.55594   2.57609   2.60103
 Alpha virt. eigenvalues --    2.62178   2.62546   2.63637   2.65532   2.68605
 Alpha virt. eigenvalues --    2.71109   2.72422   2.72859   2.76821   2.81605
 Alpha virt. eigenvalues --    2.86298   2.87556   2.88131   2.91585   2.93004
 Alpha virt. eigenvalues --    2.99347   3.00350   3.02212   3.02859   3.03570
 Alpha virt. eigenvalues --    3.06765   3.11964   3.21801   3.26748   3.60598
          Condensed to atoms (all electrons):
               1          2          3          4          5          6
     1  C    4.939597   0.656234  -0.067530   0.009881  -0.000342   0.000047
     2  C    0.656234   5.077090   0.313497  -0.088753   0.014007  -0.000907
     3  C   -0.067530   0.313497   5.289799   0.260525   0.097718  -0.154616
     4  C    0.009881  -0.088753   0.260525   5.161070   0.294507   0.093194
     5  C   -0.000342   0.014007   0.097718   0.294507   5.059675   0.259932
     6  C    0.000047  -0.000907  -0.154616   0.093194   0.259932   5.132235
     7  C    0.000789   0.016947   0.096220  -0.142692   0.100847   0.252992
     8  C   -0.013439  -0.091979   0.296331   0.055683  -0.142235   0.097593
     9  C   -0.065836   0.369611  -0.068982  -0.009095   0.000592  -0.000037
    10  C   -0.026953  -0.034669   0.010416   0.000081   0.000003   0.000001
    11  C   -0.037620  -0.029223  -0.001020   0.000106   0.000000  -0.000000
    12  C    0.345989  -0.027121   0.013026  -0.000381   0.000005   0.000001
    13  H    0.394126  -0.030382  -0.027335  -0.000319   0.000015  -0.000067
    14  H    0.000142  -0.020763  -0.071682   0.434223  -0.064244   0.014833
    15  H    0.000002  -0.000325   0.015903  -0.070574   0.437171  -0.076504
    16  H    0.000000   0.000031  -0.001348   0.014644  -0.072355   0.437775
    17  H   -0.000013  -0.000355   0.016265  -0.001695   0.014780  -0.076723
    18  H    0.009010  -0.022210  -0.070098   0.016172  -0.001839   0.014751
    19  H   -0.005756  -0.012571   0.008251   0.000041  -0.000275   0.000011
    20  H    0.007769  -0.009507  -0.021298   0.008061   0.000369  -0.000022
    21  H   -0.003584  -0.006087   0.000268  -0.000121  -0.000008   0.000000
    22  H    0.002094   0.005880  -0.000439   0.000001   0.000001  -0.000000
    23  H   -0.004951  -0.003120  -0.000571  -0.000021  -0.000000   0.000000
    24  H    0.005137   0.002436   0.000063  -0.000001  -0.000000   0.000000
    25  H   -0.006021  -0.006645  -0.000963   0.000036  -0.000000  -0.000000
    26  H   -0.016662   0.005540   0.000082   0.000002  -0.000000   0.000000
               7          8          9         10         11         12
     1  C    0.000789  -0.013439  -0.065836  -0.026953  -0.037620   0.345989
     2  C    0.016947  -0.091979   0.369611  -0.034669  -0.029223  -0.027121
     3  C    0.096220   0.296331  -0.068982   0.010416  -0.001020   0.013026
     4  C   -0.142692   0.055683  -0.009095   0.000081   0.000106  -0.000381
     5  C    0.100847  -0.142235   0.000592   0.000003   0.000000   0.000005
     6  C    0.252992   0.097593  -0.000037   0.000001  -0.000000   0.000001
     7  C    5.096597   0.265880  -0.000136  -0.000000   0.000003  -0.000024
     8  C    0.265880   5.153576   0.006794  -0.000189  -0.000027   0.000590
     9  C   -0.000136   0.006794   4.716136   0.412296  -0.037871  -0.050281
    10  C   -0.000000  -0.000189   0.412296   4.657154   0.408346  -0.042555
    11  C    0.000003  -0.000027  -0.037871   0.408346   4.660326   0.419741
    12  C   -0.000024   0.000590  -0.050281  -0.042555   0.419741   4.684888
    13  H    0.000345   0.006529   0.013033  -0.000652   0.007752  -0.053159
    14  H   -0.001754   0.015247   0.000723  -0.000270  -0.000009  -0.000015
    15  H    0.014707  -0.001589   0.000008  -0.000000   0.000000  -0.000000
    16  H   -0.072765   0.014397   0.000000  -0.000000   0.000000   0.000000
    17  H    0.437553  -0.071094   0.000004  -0.000000  -0.000000  -0.000000
    18  H   -0.069536   0.435985   0.000130  -0.000059   0.000039  -0.000321
    19  H   -0.000104  -0.000138   0.329259  -0.004504  -0.011492   0.002239
    20  H    0.000045   0.000077   0.348394  -0.020160   0.009133   0.000337
    21  H   -0.000000   0.000002  -0.021552   0.371719  -0.036591  -0.001505
    22  H   -0.000000   0.000006  -0.009183   0.345566  -0.010932   0.006693
    23  H    0.000001   0.000046  -0.000013  -0.034574   0.369467  -0.022907
    24  H    0.000000  -0.000000   0.006543  -0.011432   0.344572  -0.007795
    25  H    0.000003   0.000053   0.002072  -0.010285  -0.007740   0.334499
    26  H   -0.000005  -0.000097   0.000412   0.009253  -0.021511   0.353447
              13         14         15         16         17         18
     1  C    0.394126   0.000142   0.000002   0.000000  -0.000013   0.009010
     2  C   -0.030382  -0.020763  -0.000325   0.000031  -0.000355  -0.022210
     3  C   -0.027335  -0.071682   0.015903  -0.001348   0.016265  -0.070098
     4  C   -0.000319   0.434223  -0.070574   0.014644  -0.001695   0.016172
     5  C    0.000015  -0.064244   0.437171  -0.072355   0.014780  -0.001839
     6  C   -0.000067   0.014833  -0.076504   0.437775  -0.076723   0.014751
     7  C    0.000345  -0.001754   0.014707  -0.072765   0.437553  -0.069536
     8  C    0.006529   0.015247  -0.001589   0.014397  -0.071094   0.435985
     9  C    0.013033   0.000723   0.000008   0.000000   0.000004   0.000130
    10  C   -0.000652  -0.000270  -0.000000  -0.000000  -0.000000  -0.000059
    11  C    0.007752  -0.000009   0.000000   0.000000  -0.000000   0.000039
    12  C   -0.053159  -0.000015  -0.000000   0.000000  -0.000000  -0.000321
    13  H    0.696342  -0.000013   0.000001  -0.000001   0.000035   0.001630
    14  H   -0.000013   0.716805  -0.014186  -0.000300   0.000033  -0.000256
    15  H    0.000001  -0.014186   0.713284  -0.013032  -0.000310   0.000035
    16  H   -0.000001  -0.000300  -0.013032   0.709254  -0.013102  -0.000282
    17  H    0.000035   0.000033  -0.000310  -0.013102   0.712534  -0.013854
    18  H    0.001630  -0.000256   0.000035  -0.000282  -0.013854   0.711269
    19  H   -0.000488  -0.000144   0.000000  -0.000000   0.000000  -0.000076
    20  H   -0.000342   0.004381   0.000033   0.000000   0.000000   0.000024
    21  H   -0.000093  -0.000010   0.000000  -0.000000  -0.000000   0.000001
    22  H    0.000052   0.000029  -0.000000  -0.000000   0.000000  -0.000000
    23  H    0.000091  -0.000003   0.000000  -0.000000  -0.000000   0.000014
    24  H   -0.000398  -0.000000  -0.000000  -0.000000  -0.000000  -0.000000
    25  H    0.000581  -0.000001   0.000000   0.000000  -0.000000   0.000040
    26  H   -0.006560   0.000001   0.000000  -0.000000   0.000000  -0.000048
              19         20         21         22         23         24
     1  C   -0.005756   0.007769  -0.003584   0.002094  -0.004951   0.005137
     2  C   -0.012571  -0.009507  -0.006087   0.005880  -0.003120   0.002436
     3  C    0.008251  -0.021298   0.000268  -0.000439  -0.000571   0.000063
     4  C    0.000041   0.008061  -0.000121   0.000001  -0.000021  -0.000001
     5  C   -0.000275   0.000369  -0.000008   0.000001  -0.000000  -0.000000
     6  C    0.000011  -0.000022   0.000000  -0.000000   0.000000   0.000000
     7  C   -0.000104   0.000045  -0.000000  -0.000000   0.000001   0.000000
     8  C   -0.000138   0.000077   0.000002   0.000006   0.000046  -0.000000
     9  C    0.329259   0.348394  -0.021552  -0.009183  -0.000013   0.006543
    10  C   -0.004504  -0.020160   0.371719   0.345566  -0.034574  -0.011432
    11  C   -0.011492   0.009133  -0.036591  -0.010932   0.369467   0.344572
    12  C    0.002239   0.000337  -0.001505   0.006693  -0.022907  -0.007795
    13  H   -0.000488  -0.000342  -0.000093   0.000052   0.000091  -0.000398
    14  H   -0.000144   0.004381  -0.000010   0.000029  -0.000003  -0.000000
    15  H    0.000000   0.000033   0.000000  -0.000000   0.000000  -0.000000
    16  H   -0.000000   0.000000  -0.000000  -0.000000  -0.000000  -0.000000
    17  H    0.000000   0.000000  -0.000000   0.000000  -0.000000  -0.000000
    18  H   -0.000076   0.000024   0.000001  -0.000000   0.000014  -0.000000
    19  H    0.688394  -0.022885   0.008311  -0.011259   0.004830  -0.000142
    20  H   -0.022885   0.685774  -0.010011  -0.002821   0.000226  -0.000378
    21  H    0.008311  -0.010011   0.701322  -0.029255   0.009825  -0.007530
    22  H   -0.011259  -0.002821  -0.029255   0.703847  -0.007682  -0.006620
    23  H    0.004830   0.000226   0.009825  -0.007682   0.701002  -0.029041
    24  H   -0.000142  -0.000378  -0.007530  -0.006620  -0.029041   0.702900
    25  H   -0.000182   0.000239   0.004833  -0.000178   0.008498  -0.011465
    26  H    0.000236  -0.000028   0.000116  -0.000398  -0.011081  -0.001704
              25         26
     1  C   -0.006021  -0.016662
     2  C   -0.006645   0.005540
     3  C   -0.000963   0.000082
     4  C    0.000036   0.000002
     5  C   -0.000000  -0.000000
     6  C   -0.000000   0.000000
     7  C    0.000003  -0.000005
     8  C    0.000053  -0.000097
     9  C    0.002072   0.000412
    10  C   -0.010285   0.009253
    11  C   -0.007740  -0.021511
    12  C    0.334499   0.353447
    13  H    0.000581  -0.006560
    14  H   -0.000001   0.000001
    15  H    0.000000   0.000000
    16  H    0.000000  -0.000000
    17  H   -0.000000   0.000000
    18  H    0.000040  -0.000048
    19  H   -0.000182   0.000236
    20  H    0.000239  -0.000028
    21  H    0.004833   0.000116
    22  H   -0.000178  -0.000398
    23  H    0.008498  -0.011081
    24  H   -0.011465  -0.001704
    25  H    0.691229  -0.026459
    26  H   -0.026459   0.693170
 Mulliken charges:
               1
     1  C   -0.122111
     2  C   -0.076656
     3  C    0.067519
     4  C   -0.034575
     5  C    0.001676
     6  C    0.005511
     7  C    0.004090
     8  C   -0.028001
     9  C    0.056979
    10  C   -0.028533
    11  C   -0.025448
    12  C    0.044609
    13  H   -0.000722
    14  H   -0.012765
    15  H   -0.004623
    16  H   -0.002915
    17  H   -0.004059
    18  H   -0.010522
    19  H    0.028440
    20  H    0.022589
    21  H    0.019947
    22  H    0.014600
    23  H    0.019964
    24  H    0.014856
    25  H    0.027857
    26  H    0.022294
 Sum of Mulliken charges =  -0.00000
 Mulliken charges with hydrogens summed into heavy atoms:
               1
     1  C   -0.122832
     2  C   -0.076656
     3  C    0.067519
     4  C   -0.047340
     5  C   -0.002948
     6  C    0.002596
     7  C    0.000031
     8  C   -0.038523
     9  C    0.108008
    10  C    0.006015
    11  C    0.009372
    12  C    0.094760
 Electronic spatial extent (au):  <R**2>=           2542.2001
 Charge=              0.0000 electrons
 Dipole moment (field-independent basis, Debye):
    X=             -0.5542    Y=              0.0989    Z=              0.0551  Tot=              0.5657
 Quadrupole moment (field-independent basis, Debye-Ang):
   XX=            -67.5187   YY=            -68.5149   ZZ=            -75.3010
   XY=              0.1925   XZ=              0.1652   YZ=             -1.1920
 Traceless Quadrupole moment (field-independent basis, Debye-Ang):
   XX=              2.9262   YY=              1.9300   ZZ=             -4.8561
   XY=              0.1925   XZ=              0.1652   YZ=             -1.1920
 Octapole moment (field-independent basis, Debye-Ang**2):
  XXX=             12.8338  YYY=             -1.1427  ZZZ=              1.1313  XYY=              3.5411
  XXY=             -1.1326  XXZ=             -0.8395  XZZ=             -8.7142  YZZ=              0.4496
  YYZ=             -0.8002  XYZ=             -5.8687
 Hexadecapole moment (field-independent basis, Debye-Ang**3):
 XXXX=          -2648.4002 YYYY=           -576.1924 ZZZZ=           -172.6682 XXXY=              2.7278
 XXXZ=              7.1665 YYYX=              3.0302 YYYZ=             -9.2137 ZZZX=             -0.0991
 ZZZY=              2.1082 XXYY=           -541.6561 XXZZ=           -512.3515 YYZZ=           -128.4031
 XXYZ=            -12.7494 YYXZ=             -0.7570 ZZXY=             -0.9496
 N-N= 6.445583827343D+02 E-N=-2.363796356432D+03  KE= 4.591732856044D+02
 No NMR shielding tensors so no spin-rotation constants.
 Leave Link  601 at Wed Oct 13 12:09:30 2021, MaxMem=  6442450944 cpu:               2.3 elap:               0.2
 (Enter /mnt/gpfs3_amd/share/apps/amd/gaussian/g16-A.03/g16/l9999.exe)

 Test job not archived.
 1\1\GINC-ROME027\FOpt\RLC-wHPBE\def2SVP\C12H14\RDU230\13-Oct-2021\0\\#
 P LC-wHPBE/Def2SVP iop(3/107=0156500000, 3/108=0156500000) opt scf(max
 cyc=512)\\H14 C12\\0,1\C,-1.062067833,1.0459064347,0.4591773326\C,-0.3
 197400665,0.0356388405,-0.054851076\C,1.1668808897,0.0413064773,0.0679
 158763\C,1.8943146629,-1.1408695668,0.3243333506\C,3.2881311501,-1.119
 7672142,0.4599666817\C,3.9930694378,0.0846209792,0.3330289571\C,3.2891
 502468,1.2670922827,0.0665509665\C,1.8960505164,1.2431828389,-0.068475
 3207\C,-0.975599964,-1.1191083962,-0.7899349955\C,-2.4918689692,-1.187
 4340115,-0.5772428285\C,-3.1297536903,0.1967864069,-0.7201605606\C,-2.
 558072716,1.1589134326,0.3264264597\H,-0.5517954639,1.8388964432,1.030
 9164233\H,1.3606675871,-2.095333996,0.4420092924\H,3.8282238712,-2.054
 982713,0.6703949895\H,5.0882290355,0.1005473091,0.434617727\H,3.831384
 2578,2.2174155585,-0.0498844738\H,1.354463795,2.1704030579,-0.30696521
 83\H,-0.7415659804,-1.0237782568,-1.8743233251\H,-0.5086539011,-2.0770
 32448,-0.4824445279\H,-2.7026588312,-1.5803596542,0.441039008\H,-2.942
 6083809,-1.9064039489,-1.2905638554\H,-2.9181464668,0.5908787787,-1.73
 76180484\H,-4.2328711295,0.1369153154,-0.6289272586\H,-3.026729561,0.9
 683413366,1.3193024345\H,-2.8284364964,2.2082237134,0.0813359894\\Vers
 ion=AM64L-G16RevA.03\State=1-A\HF=-464.8923886\RMSD=5.306e-09\RMSF=1.1
 51e-06\Dipole=-0.2138247,-0.0371613,-0.0493115\Quadrupole=2.143192,1.5
 802947,-3.7234867,-0.1041356,0.4713277,-0.1547696\PG=C01 [X(C12H14)]\\
 @


 SI MONUMENTUM REQUIRIS, CIRCUMSPICE
     -- FROM SIR CHRISTOPHER WREN'S TOMBSTONE
 Job cpu time:       0 days  3 hours  1 minutes 41.5 seconds.
 Elapsed time:       0 days  0 hours 11 minutes 37.5 seconds.
 File lengths (MBytes):  RWF=    152 Int=      0 D2E=      0 Chk=     16 Scr=     16
 Normal termination of Gaussian 16 at Wed Oct 13 12:09:30 2021.
