 Entering Gaussian System, Link 0=g16
 Input=/work/08504/tg878040/stampede2/d3tales/runfiles//06CCVA/gaussian/gas_phase/opt/opt_groundState.com
 Output=/work/08504/tg878040/stampede2/d3tales/runfiles//06CCVA/gaussian/gas_phase/opt/opt_groundState.log
 Initial command:
 /home1/apps/gaussian/16rA.03/g16/l1.exe "/tmp/Gau-27610.inp" -scrdir="/tmp/"
 Entering Link 1 = /home1/apps/gaussian/16rA.03/g16/l1.exe PID=     27611.
  
 Copyright (c) 1988,1990,1992,1993,1995,1998,2003,2009,2016,
            Gaussian, Inc.  All Rights Reserved.
  
 This is part of the Gaussian(R) 16 program.  It is based on
 the Gaussian(R) 09 system (copyright 2009, Gaussian, Inc.),
 the Gaussian(R) 03 system (copyright 2003, Gaussian, Inc.),
 the Gaussian(R) 98 system (copyright 1998, Gaussian, Inc.),
 the Gaussian(R) 94 system (copyright 1995, Gaussian, Inc.),
 the Gaussian 92(TM) system (copyright 1992, Gaussian, Inc.),
 the Gaussian 90(TM) system (copyright 1990, Gaussian, Inc.),
 the Gaussian 88(TM) system (copyright 1988, Gaussian, Inc.),
 the Gaussian 86(TM) system (copyright 1986, Carnegie Mellon
 University), and the Gaussian 82(TM) system (copyright 1983,
 Carnegie Mellon University). Gaussian is a federally registered
 trademark of Gaussian, Inc.
  
 This software contains proprietary and confidential information,
 including trade secrets, belonging to Gaussian, Inc.
  
 This software is provided under written license and may be
 used, copied, transmitted, or stored only in accord with that
 written license.
  
 The following legend is applicable only to US Government
 contracts under FAR:
  
                    RESTRICTED RIGHTS LEGEND
  
 Use, reproduction and disclosure by the US Government is
 subject to restrictions as set forth in subparagraphs (a)
 and (c) of the Commercial Computer Software - Restricted
 Rights clause in FAR 52.227-19.
  
 Gaussian, Inc.
 340 Quinnipiac St., Bldg. 40, Wallingford CT 06492
  
  
 ---------------------------------------------------------------
 Warning -- This program may not be used in any manner that
 competes with the business of Gaussian, Inc. or will provide
 assistance to any competitor of Gaussian, Inc.  The licensee
 of this program is prohibited from giving any competitor of
 Gaussian, Inc. access to this program.  By using this program,
 the user acknowledges that Gaussian, Inc. is engaged in the
 business of creating and licensing software in the field of
 computational chemistry and represents and warrants to the
 licensee that it is not a competitor of Gaussian, Inc. and that
 it will not use this program in any manner prohibited above.
 ---------------------------------------------------------------
  

 Cite this work as:
 Gaussian 16, Revision A.03,
 M. J. Frisch, G. W. Trucks, H. B. Schlegel, G. E. Scuseria, 
 M. A. Robb, J. R. Cheeseman, G. Scalmani, V. Barone, 
 G. A. Petersson, H. Nakatsuji, X. Li, M. Caricato, A. V. Marenich, 
 J. Bloino, B. G. Janesko, R. Gomperts, B. Mennucci, H. P. Hratchian, 
 J. V. Ortiz, A. F. Izmaylov, J. L. Sonnenberg, D. Williams-Young, 
 F. Ding, F. Lipparini, F. Egidi, J. Goings, B. Peng, A. Petrone, 
 T. Henderson, D. Ranasinghe, V. G. Zakrzewski, J. Gao, N. Rega, 
 G. Zheng, W. Liang, M. Hada, M. Ehara, K. Toyota, R. Fukuda, 
 J. Hasegawa, M. Ishida, T. Nakajima, Y. Honda, O. Kitao, H. Nakai, 
 T. Vreven, K. Throssell, J. A. Montgomery, Jr., J. E. Peralta, 
 F. Ogliaro, M. J. Bearpark, J. J. Heyd, E. N. Brothers, K. N. Kudin, 
 V. N. Staroverov, T. A. Keith, R. Kobayashi, J. Normand, 
 K. Raghavachari, A. P. Rendell, J. C. Burant, S. S. Iyengar, 
 J. Tomasi, M. Cossi, J. M. Millam, M. Klene, C. Adamo, R. Cammi, 
 J. W. Ochterski, R. L. Martin, K. Morokuma, O. Farkas, 
 J. B. Foresman, and D. J. Fox, Gaussian, Inc., Wallingford CT, 2016.
 
 ******************************************
 Gaussian 16:  ES64L-G16RevA.03 25-Dec-2016
                10-May-2022 
 ******************************************
 %chk=/work/08504/tg878040/stampede2/d3tales/runfiles//06CCVA/gaussian/gas_phase/
 opt/opt_groundState.chk
 %mem=48GB
 %nprocshared=16
 Will use up to   16 processors via shared memory.
 ----------------------------------------------------------------------
 #P LC-wHPBE/Def2SVP iop(3/107=0156500000, 3/108=0156500000) opt scf(ma
 xcyc=512)
 ----------------------------------------------------------------------
 1/18=20,19=15,26=3,38=1/1,3;
 2/9=110,12=2,17=6,18=5,40=1/2;
 3/5=43,7=101,11=2,25=1,30=1,71=1,74=-71,107=156500000,108=156500000/1,2,3;
 4//1;
 5/5=2,7=512,38=5/2;
 6/7=2,8=2,9=2,10=2,28=1/1;
 7//1,2,3,16;
 1/18=20,19=15,26=3/3(2);
 2/9=110/2;
 99//99;
 2/9=110/2;
 3/5=43,7=101,11=2,25=1,30=1,71=1,74=-71,107=156500000,108=156500000/1,2,3;
 4/5=5,16=3,69=1/1;
 5/5=2,7=512,38=5/2;
 7//1,2,3,16;
 1/18=20,19=15,26=3/3(-5);
 2/9=110/2;
 6/7=2,8=2,9=2,10=2,19=2,28=1/1;
 99/9=1/99;
 Leave Link    1 at Tue May 10 16:50:34 2022, MaxMem=  6442450944 cpu:               0.6 elap:               0.0
 (Enter /home1/apps/gaussian/16rA.03/g16/l101.exe)
 -------
 H10 C14
 -------
 Symbolic Z-matrix:
 Charge =  0 Multiplicity = 1
 C                    -3.59302   0.70291   0.15055 
 C                    -3.5797   -0.66596   0.3185 
 C                    -2.37798  -1.3765    0.32921 
 C                    -1.20226  -0.67973   0.16804 
 C                    -0.00394  -1.35826   0.17501 
 C                     1.18549  -0.6799    0.01524 
 C                     2.38628  -1.3606    0.02233 
 C                     3.5871   -0.69638  -0.13644 
 C                     3.58673   0.66641  -0.30447 
 C                     2.40844   1.37681  -0.31665 
 C                     1.2273    0.69096  -0.15649 
 C                     0.00845   1.3325   -0.15759 
 C                    -1.19278   0.68458  -0.00081 
 C                    -2.40342   1.38397  -0.00958 
 H                    -4.55942   1.22887   0.14751 
 H                    -4.53474  -1.17299   0.44215 
 H                    -2.39599  -2.4548    0.4633 
 H                    -0.01563  -2.4519    0.3106 
 H                     2.41987  -2.44059   0.1534 
 H                     4.52481  -1.26495  -0.1263 
 H                     4.52885   1.19149  -0.42954 
 H                     2.40057   2.47192  -0.45114 
 H                    -0.02972   2.42484  -0.28984 
 H                    -2.37528   2.44733  -0.14251 
 
 ITRead=  0  0  0  0  0  0  0  0  0  0  0  0  0  0  0  0  0  0  0  0
 ITRead=  0  0  0  0
 MicOpt= -1 -1 -1 -1 -1 -1 -1 -1 -1 -1 -1 -1 -1 -1 -1 -1 -1 -1 -1 -1
 MicOpt= -1 -1 -1 -1
 NAtoms=     24 NQM=       24 NQMF=       0 NMMI=      0 NMMIF=      0
                NMic=       0 NMicF=      0.
                    Isotopes and Nuclear Properties:
 (Nuclear quadrupole moments (NQMom) in fm**2, nuclear magnetic moments (NMagM)
  in nuclear magnetons)

  Atom         1           2           3           4           5           6           7           8           9          10
 IAtWgt=          12          12          12          12          12          12          12          12          12          12
 AtmWgt=  12.0000000  12.0000000  12.0000000  12.0000000  12.0000000  12.0000000  12.0000000  12.0000000  12.0000000  12.0000000
 NucSpn=           0           0           0           0           0           0           0           0           0           0
 AtZEff=  -0.0000000  -0.0000000  -0.0000000  -0.0000000  -0.0000000  -0.0000000  -0.0000000  -0.0000000  -0.0000000  -0.0000000
 NQMom=    0.0000000   0.0000000   0.0000000   0.0000000   0.0000000   0.0000000   0.0000000   0.0000000   0.0000000   0.0000000
 NMagM=    0.0000000   0.0000000   0.0000000   0.0000000   0.0000000   0.0000000   0.0000000   0.0000000   0.0000000   0.0000000
 AtZNuc=   6.0000000   6.0000000   6.0000000   6.0000000   6.0000000   6.0000000   6.0000000   6.0000000   6.0000000   6.0000000

  Atom        11          12          13          14          15          16          17          18          19          20
 IAtWgt=          12          12          12          12           1           1           1           1           1           1
 AtmWgt=  12.0000000  12.0000000  12.0000000  12.0000000   1.0078250   1.0078250   1.0078250   1.0078250   1.0078250   1.0078250
 NucSpn=           0           0           0           0           1           1           1           1           1           1
 AtZEff=  -0.0000000  -0.0000000  -0.0000000  -0.0000000  -0.0000000  -0.0000000  -0.0000000  -0.0000000  -0.0000000  -0.0000000
 NQMom=    0.0000000   0.0000000   0.0000000   0.0000000   0.0000000   0.0000000   0.0000000   0.0000000   0.0000000   0.0000000
 NMagM=    0.0000000   0.0000000   0.0000000   0.0000000   2.7928460   2.7928460   2.7928460   2.7928460   2.7928460   2.7928460
 AtZNuc=   6.0000000   6.0000000   6.0000000   6.0000000   1.0000000   1.0000000   1.0000000   1.0000000   1.0000000   1.0000000

  Atom        21          22          23          24
 IAtWgt=           1           1           1           1
 AtmWgt=   1.0078250   1.0078250   1.0078250   1.0078250
 NucSpn=           1           1           1           1
 AtZEff=  -0.0000000  -0.0000000  -0.0000000  -0.0000000
 NQMom=    0.0000000   0.0000000   0.0000000   0.0000000
 NMagM=    2.7928460   2.7928460   2.7928460   2.7928460
 AtZNuc=   1.0000000   1.0000000   1.0000000   1.0000000
 Leave Link  101 at Tue May 10 16:50:34 2022, MaxMem=  6442450944 cpu:               6.7 elap:               0.4
 (Enter /home1/apps/gaussian/16rA.03/g16/l103.exe)

 GradGradGradGradGradGradGradGradGradGradGradGradGradGradGradGradGradGrad
 Berny optimization.
 Initialization pass.
                           ----------------------------
                           !    Initial Parameters    !
                           ! (Angstroms and Degrees)  !
 --------------------------                            --------------------------
 ! Name  Definition              Value          Derivative Info.                !
 --------------------------------------------------------------------------------
 ! R1    R(1,2)                  1.3792         estimate D2E/DX2                !
 ! R2    R(1,14)                 1.3801         estimate D2E/DX2                !
 ! R3    R(1,15)                 1.1003         estimate D2E/DX2                !
 ! R4    R(2,3)                  1.3961         estimate D2E/DX2                !
 ! R5    R(2,16)                 1.0883         estimate D2E/DX2                !
 ! R6    R(3,4)                  1.3761         estimate D2E/DX2                !
 ! R7    R(3,17)                 1.0868         estimate D2E/DX2                !
 ! R8    R(4,5)                  1.3771         estimate D2E/DX2                !
 ! R9    R(4,13)                 1.3748         estimate D2E/DX2                !
 ! R10   R(5,6)                  1.3786         estimate D2E/DX2                !
 ! R11   R(5,18)                 1.1021         estimate D2E/DX2                !
 ! R12   R(6,7)                  1.3803         estimate D2E/DX2                !
 ! R13   R(6,11)                 1.3822         estimate D2E/DX2                !
 ! R14   R(7,8)                  1.3814         estimate D2E/DX2                !
 ! R15   R(7,19)                 1.0884         estimate D2E/DX2                !
 ! R16   R(8,9)                  1.3731         estimate D2E/DX2                !
 ! R17   R(8,20)                 1.0967         estimate D2E/DX2                !
 ! R18   R(9,10)                 1.3759         estimate D2E/DX2                !
 ! R19   R(9,21)                 1.0858         estimate D2E/DX2                !
 ! R20   R(10,11)                1.3752         estimate D2E/DX2                !
 ! R21   R(10,22)                1.1034         estimate D2E/DX2                !
 ! R22   R(11,12)                1.3774         estimate D2E/DX2                !
 ! R23   R(12,13)                1.3738         estimate D2E/DX2                !
 ! R24   R(12,23)                1.101          estimate D2E/DX2                !
 ! R25   R(13,14)                1.3982         estimate D2E/DX2                !
 ! R26   R(14,24)                1.072          estimate D2E/DX2                !
 ! A1    A(2,1,14)             119.7088         estimate D2E/DX2                !
 ! A2    A(2,1,15)             118.8991         estimate D2E/DX2                !
 ! A3    A(14,1,15)            121.392          estimate D2E/DX2                !
 ! A4    A(1,2,3)              120.956          estimate D2E/DX2                !
 ! A5    A(1,2,16)             117.8885         estimate D2E/DX2                !
 ! A6    A(3,2,16)             121.1555         estimate D2E/DX2                !
 ! A7    A(2,3,4)              118.4777         estimate D2E/DX2                !
 ! A8    A(2,3,17)             119.4501         estimate D2E/DX2                !
 ! A9    A(4,3,17)             122.0722         estimate D2E/DX2                !
 ! A10   A(3,4,5)              119.5626         estimate D2E/DX2                !
 ! A11   A(3,4,13)             121.5169         estimate D2E/DX2                !
 ! A12   A(5,4,13)             118.9205         estimate D2E/DX2                !
 ! A13   A(4,5,6)              120.5135         estimate D2E/DX2                !
 ! A14   A(4,5,18)             118.7073         estimate D2E/DX2                !
 ! A15   A(6,5,18)             120.7793         estimate D2E/DX2                !
 ! A16   A(5,6,7)              120.485          estimate D2E/DX2                !
 ! A17   A(5,6,11)             121.907          estimate D2E/DX2                !
 ! A18   A(7,6,11)             117.608          estimate D2E/DX2                !
 ! A19   A(6,7,8)              121.231          estimate D2E/DX2                !
 ! A20   A(6,7,19)             121.1171         estimate D2E/DX2                !
 ! A21   A(8,7,19)             117.6519         estimate D2E/DX2                !
 ! A22   A(7,8,9)              119.4085         estimate D2E/DX2                !
 ! A23   A(7,8,20)             119.5328         estimate D2E/DX2                !
 ! A24   A(9,8,20)             121.0587         estimate D2E/DX2                !
 ! A25   A(8,9,10)             120.9131         estimate D2E/DX2                !
 ! A26   A(8,9,21)             119.5919         estimate D2E/DX2                !
 ! A27   A(10,9,21)            119.495          estimate D2E/DX2                !
 ! A28   A(9,10,11)            118.4893         estimate D2E/DX2                !
 ! A29   A(9,10,22)            121.3073         estimate D2E/DX2                !
 ! A30   A(11,10,22)           120.2035         estimate D2E/DX2                !
 ! A31   A(6,11,10)            122.3502         estimate D2E/DX2                !
 ! A32   A(6,11,12)            115.8027         estimate D2E/DX2                !
 ! A33   A(10,11,12)           121.8472         estimate D2E/DX2                !
 ! A34   A(11,12,13)           123.6409         estimate D2E/DX2                !
 ! A35   A(11,12,23)           119.5303         estimate D2E/DX2                !
 ! A36   A(13,12,23)           116.8288         estimate D2E/DX2                !
 ! A37   A(4,13,12)            119.2154         estimate D2E/DX2                !
 ! A38   A(4,13,14)            119.4204         estimate D2E/DX2                !
 ! A39   A(12,13,14)           121.3643         estimate D2E/DX2                !
 ! A40   A(1,14,13)            119.9202         estimate D2E/DX2                !
 ! A41   A(1,14,24)            121.7704         estimate D2E/DX2                !
 ! A42   A(13,14,24)           118.3094         estimate D2E/DX2                !
 ! D1    D(14,1,2,3)            -0.0001         estimate D2E/DX2                !
 ! D2    D(14,1,2,16)          179.9996         estimate D2E/DX2                !
 ! D3    D(15,1,2,3)           179.9981         estimate D2E/DX2                !
 ! D4    D(15,1,2,16)           -0.0022         estimate D2E/DX2                !
 ! D5    D(2,1,14,13)            0.0            estimate D2E/DX2                !
 ! D6    D(2,1,14,24)          179.9996         estimate D2E/DX2                !
 ! D7    D(15,1,14,13)        -179.9981         estimate D2E/DX2                !
 ! D8    D(15,1,14,24)           0.0014         estimate D2E/DX2                !
 ! D9    D(1,2,3,4)              0.0001         estimate D2E/DX2                !
 ! D10   D(1,2,3,17)          -179.9979         estimate D2E/DX2                !
 ! D11   D(16,2,3,4)          -179.9996         estimate D2E/DX2                !
 ! D12   D(16,2,3,17)            0.0024         estimate D2E/DX2                !
 ! D13   D(2,3,4,5)            180.0            estimate D2E/DX2                !
 ! D14   D(2,3,4,13)             0.0            estimate D2E/DX2                !
 ! D15   D(17,3,4,5)            -0.002          estimate D2E/DX2                !
 ! D16   D(17,3,4,13)          179.9979         estimate D2E/DX2                !
 ! D17   D(3,4,5,6)           -179.9999         estimate D2E/DX2                !
 ! D18   D(3,4,5,18)             0.0014         estimate D2E/DX2                !
 ! D19   D(13,4,5,6)             0.0001         estimate D2E/DX2                !
 ! D20   D(13,4,5,18)         -179.9986         estimate D2E/DX2                !
 ! D21   D(3,4,13,12)          180.0            estimate D2E/DX2                !
 ! D22   D(3,4,13,14)           -0.0001         estimate D2E/DX2                !
 ! D23   D(5,4,13,12)           -0.0001         estimate D2E/DX2                !
 ! D24   D(5,4,13,14)          179.9999         estimate D2E/DX2                !
 ! D25   D(4,5,6,7)            179.9999         estimate D2E/DX2                !
 ! D26   D(4,5,6,11)             0.0            estimate D2E/DX2                !
 ! D27   D(18,5,6,7)            -0.0014         estimate D2E/DX2                !
 ! D28   D(18,5,6,11)          179.9987         estimate D2E/DX2                !
 ! D29   D(5,6,7,8)            179.9997         estimate D2E/DX2                !
 ! D30   D(5,6,7,19)            -0.003          estimate D2E/DX2                !
 ! D31   D(11,6,7,8)            -0.0003         estimate D2E/DX2                !
 ! D32   D(11,6,7,19)          179.9969         estimate D2E/DX2                !
 ! D33   D(5,6,11,10)          179.9997         estimate D2E/DX2                !
 ! D34   D(5,6,11,12)           -0.0001         estimate D2E/DX2                !
 ! D35   D(7,6,11,10)           -0.0002         estimate D2E/DX2                !
 ! D36   D(7,6,11,12)          180.0            estimate D2E/DX2                !
 ! D37   D(6,7,8,9)              0.0004         estimate D2E/DX2                !
 ! D38   D(6,7,8,20)           179.9974         estimate D2E/DX2                !
 ! D39   D(19,7,8,9)          -179.9969         estimate D2E/DX2                !
 ! D40   D(19,7,8,20)            0.0001         estimate D2E/DX2                !
 ! D41   D(7,8,9,10)             0.0            estimate D2E/DX2                !
 ! D42   D(7,8,9,21)          -179.9987         estimate D2E/DX2                !
 ! D43   D(20,8,9,10)         -179.997          estimate D2E/DX2                !
 ! D44   D(20,8,9,21)            0.0043         estimate D2E/DX2                !
 ! D45   D(8,9,10,11)           -0.0005         estimate D2E/DX2                !
 ! D46   D(8,9,10,22)          179.9971         estimate D2E/DX2                !
 ! D47   D(21,9,10,11)         179.9983         estimate D2E/DX2                !
 ! D48   D(21,9,10,22)          -0.0042         estimate D2E/DX2                !
 ! D49   D(9,10,11,6)            0.0006         estimate D2E/DX2                !
 ! D50   D(9,10,11,12)        -179.9996         estimate D2E/DX2                !
 ! D51   D(22,10,11,6)        -179.997          estimate D2E/DX2                !
 ! D52   D(22,10,11,12)          0.0028         estimate D2E/DX2                !
 ! D53   D(6,11,12,13)           0.0002         estimate D2E/DX2                !
 ! D54   D(6,11,12,23)         179.9992         estimate D2E/DX2                !
 ! D55   D(10,11,12,13)       -179.9997         estimate D2E/DX2                !
 ! D56   D(10,11,12,23)         -0.0007         estimate D2E/DX2                !
 ! D57   D(11,12,13,4)          -0.0001         estimate D2E/DX2                !
 ! D58   D(11,12,13,14)        180.0            estimate D2E/DX2                !
 ! D59   D(23,12,13,4)        -179.9991         estimate D2E/DX2                !
 ! D60   D(23,12,13,14)          0.0009         estimate D2E/DX2                !
 ! D61   D(4,13,14,1)            0.0001         estimate D2E/DX2                !
 ! D62   D(4,13,14,24)        -179.9995         estimate D2E/DX2                !
 ! D63   D(12,13,14,1)        -180.0            estimate D2E/DX2                !
 ! D64   D(12,13,14,24)          0.0005         estimate D2E/DX2                !
 --------------------------------------------------------------------------------
 Trust Radius=3.00D-01 FncErr=1.00D-07 GrdErr=1.00D-06 EigMax=2.50D+02 EigMin=1.00D-04
 Number of steps in this run=    142 maximum allowed number of steps=    144.
 GradGradGradGradGradGradGradGradGradGradGradGradGradGradGradGradGradGrad

 Leave Link  103 at Tue May 10 16:50:34 2022, MaxMem=  6442450944 cpu:               0.3 elap:               0.0
 (Enter /home1/apps/gaussian/16rA.03/g16/l202.exe)
                          Input orientation:                          
 ---------------------------------------------------------------------
 Center     Atomic      Atomic             Coordinates (Angstroms)
 Number     Number       Type             X           Y           Z
 ---------------------------------------------------------------------
      1          6           0       -3.593024    0.702914    0.150546
      2          6           0       -3.579702   -0.665960    0.318498
      3          6           0       -2.377982   -1.376499    0.329205
      4          6           0       -1.202261   -0.679733    0.168035
      5          6           0       -0.003936   -1.358261    0.175012
      6          6           0        1.185488   -0.679896    0.015236
      7          6           0        2.386279   -1.360601    0.022326
      8          6           0        3.587099   -0.696384   -0.136440
      9          6           0        3.586730    0.666408   -0.304465
     10          6           0        2.408439    1.376806   -0.316648
     11          6           0        1.227303    0.690958   -0.156485
     12          6           0        0.008445    1.332499   -0.157590
     13          6           0       -1.192777    0.684579   -0.000812
     14          6           0       -2.403420    1.383965   -0.009575
     15          1           0       -4.559419    1.228866    0.147507
     16          1           0       -4.534735   -1.172992    0.442153
     17          1           0       -2.395992   -2.454802    0.463295
     18          1           0       -0.015634   -2.451902    0.310599
     19          1           0        2.419872   -2.440586    0.153404
     20          1           0        4.524809   -1.264950   -0.126298
     21          1           0        4.528850    1.191486   -0.429536
     22          1           0        2.400570    2.471915   -0.451136
     23          1           0       -0.029719    2.424843   -0.289835
     24          1           0       -2.375284    2.447330   -0.142513
 ---------------------------------------------------------------------
                    Distance matrix (angstroms):
                    1          2          3          4          5
     1  C    0.000000
     2  C    1.379203   0.000000
     3  C    2.414996   1.396106   0.000000
     4  C    2.761841   2.382237   1.376146   0.000000
     5  C    4.138912   3.644993   2.379118   1.377110   0.000000
     6  C    4.976409   4.774851   3.644469   2.392633   1.378563
     7  C    6.326658   6.013582   4.774161   3.655466   2.395088
     8  C    7.320831   7.181290   6.021758   4.799057   3.664780
     9  C    7.194250   7.315807   6.336623   4.996978   4.149948
    10  C    6.057224   6.358784   5.559464   4.183470   3.679929
    11  C    4.830110   5.017383   4.184298   2.808360   2.413532
    12  C    3.669047   4.134646   3.642894   2.370848   2.711267
    13  C    2.405084   2.761037   2.400347   1.374753   2.370117
    14  C    1.380082   2.386098   2.781291   2.394405   3.648479
    15  H    1.100252   2.139965   3.402882   3.861824   5.238932
    16  H    2.119169   1.088329   2.169275   3.379915   4.542447
    17  H    3.391440   2.149905   1.086757   2.159408   2.647157
    18  H    4.772442   3.986506   2.595674   2.137520   1.102076
    19  H    6.785022   6.258709   4.917580   4.027489   2.654570
    20  H    8.357532   8.138779   6.918703   5.764412   4.539717
    21  H    8.157208   8.352142   7.407737   6.058398   5.235727
    22  H    6.278101   6.797224   6.184964   4.826660   4.565518
    23  H    3.981974   4.746105   4.510848   3.350058   3.811643
    24  H    2.147501   3.369826   3.852816   3.354243   4.495179
                    6          7          8          9         10
     6  C    0.000000
     7  C    1.380329   0.000000
     8  C    2.406452   1.381434   0.000000
     9  C    2.771409   2.378369   1.373111   0.000000
    10  C    2.415736   2.758404   2.391617   1.375930   0.000000
    11  C    1.382200   2.363069   2.737473   2.364190   1.375181
    12  C    2.337741   3.597117   4.113828   3.642715   2.405667
    13  C    2.741933   4.122249   4.977215   4.789178   3.680718
    14  C    4.140096   5.520405   6.342733   6.040178   4.821652
    15  H    6.055149   7.413753   8.375737   8.178043   6.984867
    16  H    5.757287   6.936273   8.156354   8.360564   7.435383
    17  H    4.022194   4.925631   6.264910   6.791492   6.194521
    18  H    2.161004   2.653908   4.032539   4.804080   4.574776
    19  H    2.154721   1.088429   2.118648   3.350315   3.846240
    20  H    3.393138   2.145821   1.096663   2.154502   3.390299
    21  H    3.857196   3.362728   2.129989   1.085790   2.131485
    22  H    3.409962   3.861677   3.397794   2.165258   1.103364
    23  H    3.348014   4.501564   4.779849   4.021320   2.654000
    24  H    4.741679   6.099180   6.740400   6.224429   4.905135
                   11         12         13         14         15
    11  C    0.000000
    12  C    1.377386   0.000000
    13  C    2.425090   1.373795   0.000000
    14  C    3.699188   2.416951   1.398168   0.000000
    15  H    5.819614   4.579215   3.413580   2.167271   0.000000
    16  H    6.085537   5.222802   3.849087   3.359255   2.419989
    17  H    4.838202   4.528848   3.393941   3.867789   4.283637
    18  H    3.411837   3.813328   3.364544   4.529670   5.849841
    19  H    3.365237   4.488638   4.779296   6.157751   7.885139
    20  H    3.834062   5.210112   6.042119   7.418270   9.424292
    21  H    3.350418   4.530773   5.760015   6.947646   9.106646
    22  H    2.152947   2.665839   4.038503   4.945395   7.095420
    23  H    2.145750   1.100982   2.112997   2.606996   4.705296
    24  H    4.007951   2.631585   2.127368   1.072012   2.517779
                   16         17         18         19         20
    16  H    0.000000
    17  H    2.493533   0.000000
    18  H    4.698424   2.385252   0.000000
    19  H    7.075078   4.825845   2.440600   0.000000
    20  H    9.077826   7.047046   4.713317   2.427162   0.000000
    21  H    9.407400   7.876928   5.871491   4.240230   2.475085
    22  H    7.885542   6.936550   5.537351   4.949597   4.310693
    23  H    5.811660   5.475161   4.913589   5.465286   5.863876
    24  H    4.255795   4.939467   5.456714   6.853671   7.835341
                   21         22         23         24
    21  H    0.000000
    22  H    2.483856   0.000000
    23  H    4.724536   2.436091   0.000000
    24  H    7.023289   4.785879   2.350295   0.000000
 Stoichiometry    C14H10
 Framework group  C1[X(C14H10)]
 Deg. of freedom    66
 Full point group                 C1      NOp   1
 Largest Abelian subgroup         C1      NOp   1
 Largest concise Abelian subgroup C1      NOp   1
                         Standard orientation:                         
 ---------------------------------------------------------------------
 Center     Atomic      Atomic             Coordinates (Angstroms)
 Number     Number       Type             X           Y           Z
 ---------------------------------------------------------------------
      1          6           0        3.597677   -0.702638    0.000002
      2          6           0        3.593398    0.676558    0.000005
      3          6           0        2.393928    1.390969    0.000003
      4          6           0        1.211186    0.687479    0.000001
      5          6           0        0.014906    1.369641   -0.000001
      6          6           0       -1.181445    0.684674   -0.000002
      7          6           0       -2.380182    1.369027   -0.000001
      8          6           0       -3.587859    0.698300   -0.000007
      9          6           0       -3.596519   -0.674784   -0.000005
     10          6           0       -2.420525   -1.389082    0.000003
     11          6           0       -1.232429   -0.696586   -0.000001
     12          6           0       -0.015329   -1.341457   -0.000002
     13          6           0        1.192643   -0.687150   -0.000001
     14          6           0        2.401128   -1.390313   -0.000001
     15          1           0        4.562562   -1.231365   -0.000029
     16          1           0        4.553745    1.188608    0.000014
     17          1           0        2.419118    2.477435   -0.000029
     18          1           0        0.033873    2.471554   -0.000024
     19          1           0       -2.406684    2.457133    0.000049
     20          1           0       -4.523717    1.269999    0.000036
     21          1           0       -4.544046   -1.205003   -0.000030
     22          1           0       -2.419892   -2.492446    0.000053
     23          1           0        0.015676   -2.442002    0.000011
     24          1           0        2.365888   -2.461745   -0.000010
 ---------------------------------------------------------------------
 Rotational constants (GHZ):           2.2508479           0.4712358           0.3896574
 Leave Link  202 at Tue May 10 16:50:34 2022, MaxMem=  6442450944 cpu:               0.1 elap:               0.0
 (Enter /home1/apps/gaussian/16rA.03/g16/l301.exe)
 Standard basis: def2SVP (5D, 7F)
 Ernie: Thresh=  0.10000D-02 Tol=  0.10000D-05 Strict=F.
 There are   260 symmetry adapted cartesian basis functions of A   symmetry.
 There are   246 symmetry adapted basis functions of A   symmetry.
   246 basis functions,   420 primitive gaussians,   260 cartesian basis functions
    47 alpha electrons       47 beta electrons
       nuclear repulsion energy       781.3591343066 Hartrees.
 IExCor=33909 DFT=T Ex+Corr=LC-wHPBE ExCW=0 ScaHFX=  1.000000
 ScaDFX=  1.000000  1.000000  1.000000  1.000000 ScalE2=  1.000000  1.000000
 IRadAn=      5 IRanWt=     -1 IRanGd=            0 ICorTp=0 IEmpDi=  4
 HFx  wShort=  0.000000 wLong=  0.156500 cFull=  0.000000 cShort=  0.000000 cLong=  1.000000
 DFx  wShort=  0.000000 wLong=  0.156500 cFull=  0.000000 cShort=  1.000000 cLong=  0.000000
 NAtoms=   24 NActive=   24 NUniq=   24 SFac= 1.00D+00 NAtFMM=   60 NAOKFM=F Big=F
 Integral buffers will be    131072 words long.
 Raffenetti 2 integral format.
 Two-electron integral symmetry is turned on.
 Leave Link  301 at Tue May 10 16:50:34 2022, MaxMem=  6442450944 cpu:               0.9 elap:               0.1
 (Enter /home1/apps/gaussian/16rA.03/g16/l302.exe)
 NPDir=0 NMtPBC=     1 NCelOv=     1 NCel=       1 NClECP=     1 NCelD=      1
         NCelK=      1 NCelE2=     1 NClLst=     1 CellRange=     0.0.
 One-electron integrals computed using PRISM.
 One-electron integral symmetry used in STVInt
   1 Symmetry operations used in ECPInt.
 ECPInt:  NShTT=    6555 NPrTT=   24083 LenC2=    6270 LenP2D=   17189.
 LDataN:  DoStor=T MaxTD1= 4 Len=   56
 NBasis=   246 RedAO= T EigKep=  1.85D-04  NBF=   246
 NBsUse=   246 1.00D-06 EigRej= -1.00D+00 NBFU=   246
 Precomputing XC quadrature grid using
 IXCGrd= 4 IRadAn=           5 IRanWt=          -1 IRanGd=           0 AccXCQ= 0.00D+00.
 Generated NRdTot=       0 NPtTot=           0 NUsed=           0 NTot=          32
 NSgBfM=   259   259   259   259   259 MxSgAt=    24 MxSgA2=    24.
 Leave Link  302 at Tue May 10 16:50:34 2022, MaxMem=  6442450944 cpu:               3.9 elap:               0.3
 (Enter /home1/apps/gaussian/16rA.03/g16/l303.exe)
 DipDrv:  MaxL=1.
 Leave Link  303 at Tue May 10 16:50:35 2022, MaxMem=  6442450944 cpu:               0.5 elap:               0.1
 (Enter /home1/apps/gaussian/16rA.03/g16/l401.exe)
 ExpMin= 1.22D-01 ExpMax= 1.24D+03 ExpMxC= 1.86D+02 IAcc=3 IRadAn=         5 AccDes= 0.00D+00
 Harris functional with IExCor=33909 and IRadAn=       5 diagonalized for initial guess.
 HarFok:  IExCor=33909 AccDes= 0.00D+00 IRadAn=         5 IDoV= 1 UseB2=F ITyADJ=14
 ICtDFT=  3500011 ScaDFX=  1.000000  1.000000  1.000000  1.000000
 FoFCou: FMM=F IPFlag=           0 FMFlag=      100000 FMFlg1=           0
         NFxFlg=           0 DoJE=T BraDBF=F KetDBF=T FulRan=T
         wScrn=  0.000000 ICntrl=       500 IOpCl=  0 I1Cent=   200000004 NGrid=           0
         NMat0=    1 NMatS0=      1 NMatT0=    0 NMatD0=    1 NMtDS0=    0 NMtDT0=    0
 Petite list used in FoFCou.
 Harris En= -530.716045819181    
 JPrj=0 DoOrth=F DoCkMO=F.
 Leave Link  401 at Tue May 10 16:50:35 2022, MaxMem=  6442450944 cpu:              12.0 elap:               0.8
 (Enter /home1/apps/gaussian/16rA.03/g16/l502.exe)
 Integral symmetry usage will be decided dynamically.
 Closed shell SCF:
 Using DIIS extrapolation, IDIIS=  1040.
 NGot=  6442450944 LenX=  6442308796 LenY=  6442240755
 Requested convergence on RMS density matrix=1.00D-08 within 512 cycles.
 Requested convergence on MAX density matrix=1.00D-06.
 Requested convergence on             energy=1.00D-06.
 No special actions if energy rises.
 Fock matrices will be formed incrementally for  20 cycles.
 Integral accuracy reduced to 1.0D-05 until final iterations.

 Cycle   1  Pass 0  IDiag  1:
 FoFJK:  IHMeth= 1 ICntrl=       0 DoSepK=T KAlg= 0 I1Cent=           0 FoldK=F
 IRaf=         1 NMat=       1 IRICut=       1 DoRegI=T DoRafI=F ISym2E= 0 IDoP0=0 IntGTp=1.
 FoFCou: FMM=F IPFlag=           0 FMFlag=      100000 FMFlg1=           0
         NFxFlg=           0 DoJE=T BraDBF=F KetDBF=F FulRan=T
         wScrn=  0.000000 ICntrl=       500 IOpCl=  0 I1Cent=           0 NGrid=           0
         NMat0=    1 NMatS0=      1 NMatT0=    0 NMatD0=    1 NMtDS0=    0 NMtDT0=    0
 Symmetry not used in FoFCou.
 E= -538.362947068119    
 DIIS: error= 3.41D-02 at cycle   1 NSaved=   1.
 NSaved= 1 IEnMin= 1 EnMin= -538.362947068119     IErMin= 1 ErrMin= 3.41D-02
 ErrMax= 3.41D-02  0.00D+00 EMaxC= 1.00D-01 BMatC= 1.66D-01 BMatP= 1.66D-01
 IDIUse=3 WtCom= 6.59D-01 WtEn= 3.41D-01
 Coeff-Com:  0.100D+01
 Coeff-En:   0.100D+01
 Coeff:      0.100D+01
 Gap=     0.213 Goal=   None    Shift=    0.000
 GapD=    0.213 DampG=1.000 DampE=0.500 DampFc=0.5000 IDamp=-1.
 Damping current iteration by 5.00D-01
 RMSDP=5.14D-03 MaxDP=1.13D-01              OVMax= 1.28D-01

 Cycle   2  Pass 0  IDiag  1:
 RMSU=  2.23D-03    CP:  9.48D-01
 E= -538.474241577194     Delta-E=       -0.111294509074 Rises=F Damp=T
 DIIS: error= 5.97D-03 at cycle   2 NSaved=   2.
 NSaved= 2 IEnMin= 2 EnMin= -538.474241577194     IErMin= 2 ErrMin= 5.97D-03
 ErrMax= 5.97D-03  0.00D+00 EMaxC= 1.00D-01 BMatC= 6.99D-03 BMatP= 1.66D-01
 IDIUse=3 WtCom= 9.40D-01 WtEn= 5.97D-02
 Coeff-Com: -0.106D+00 0.111D+01
 Coeff-En:   0.000D+00 0.100D+01
 Coeff:     -0.100D+00 0.110D+01
 Gap=     0.214 Goal=   None    Shift=    0.000
 RMSDP=1.32D-03 MaxDP=2.60D-02 DE=-1.11D-01 OVMax= 5.84D-02

 Cycle   3  Pass 0  IDiag  1:
 RMSU=  1.18D-03    CP:  9.33D-01  1.20D+00
 E= -538.574388773364     Delta-E=       -0.100147196170 Rises=F Damp=F
 DIIS: error= 3.75D-03 at cycle   3 NSaved=   3.
 NSaved= 3 IEnMin= 3 EnMin= -538.574388773364     IErMin= 3 ErrMin= 3.75D-03
 ErrMax= 3.75D-03  0.00D+00 EMaxC= 1.00D-01 BMatC= 1.70D-03 BMatP= 6.99D-03
 IDIUse=3 WtCom= 9.63D-01 WtEn= 3.75D-02
 Coeff-Com: -0.560D-01 0.371D+00 0.685D+00
 Coeff-En:   0.000D+00 0.000D+00 0.100D+01
 Coeff:     -0.539D-01 0.357D+00 0.697D+00
 Gap=     0.213 Goal=   None    Shift=    0.000
 RMSDP=3.69D-04 MaxDP=8.10D-03 DE=-1.00D-01 OVMax= 1.11D-02

 Cycle   4  Pass 0  IDiag  1:
 RMSU=  2.43D-04    CP:  9.32D-01  1.23D+00  7.73D-01
 E= -538.575626777575     Delta-E=       -0.001238004211 Rises=F Damp=F
 DIIS: error= 1.29D-03 at cycle   4 NSaved=   4.
 NSaved= 4 IEnMin= 4 EnMin= -538.575626777575     IErMin= 4 ErrMin= 1.29D-03
 ErrMax= 1.29D-03  0.00D+00 EMaxC= 1.00D-01 BMatC= 3.51D-04 BMatP= 1.70D-03
 IDIUse=3 WtCom= 9.87D-01 WtEn= 1.29D-02
 Coeff-Com: -0.179D-01 0.913D-01 0.335D+00 0.592D+00
 Coeff-En:   0.000D+00 0.000D+00 0.112D+00 0.888D+00
 Coeff:     -0.177D-01 0.902D-01 0.332D+00 0.596D+00
 Gap=     0.213 Goal=   None    Shift=    0.000
 RMSDP=1.00D-04 MaxDP=2.81D-03 DE=-1.24D-03 OVMax= 5.30D-03

 Cycle   5  Pass 0  IDiag  1:
 RMSU=  5.69D-05    CP:  9.32D-01  1.23D+00  8.12D-01  7.29D-01
 E= -538.575943832476     Delta-E=       -0.000317054901 Rises=F Damp=F
 DIIS: error= 3.65D-04 at cycle   5 NSaved=   5.
 NSaved= 5 IEnMin= 5 EnMin= -538.575943832476     IErMin= 5 ErrMin= 3.65D-04
 ErrMax= 3.65D-04  0.00D+00 EMaxC= 1.00D-01 BMatC= 1.16D-05 BMatP= 3.51D-04
 IDIUse=3 WtCom= 9.96D-01 WtEn= 3.65D-03
 Coeff-Com: -0.214D-02 0.672D-02 0.594D-01 0.202D+00 0.734D+00
 Coeff-En:   0.000D+00 0.000D+00 0.000D+00 0.000D+00 0.100D+01
 Coeff:     -0.213D-02 0.670D-02 0.592D-01 0.201D+00 0.735D+00
 Gap=     0.213 Goal=   None    Shift=    0.000
 RMSDP=2.54D-05 MaxDP=5.03D-04 DE=-3.17D-04 OVMax= 1.79D-03

 Cycle   6  Pass 0  IDiag  1:
 RMSU=  2.12D-05    CP:  9.32D-01  1.23D+00  8.16D-01  7.63D-01  8.20D-01
 E= -538.575953463835     Delta-E=       -0.000009631359 Rises=F Damp=F
 DIIS: error= 1.73D-04 at cycle   6 NSaved=   6.
 NSaved= 6 IEnMin= 6 EnMin= -538.575953463835     IErMin= 6 ErrMin= 1.73D-04
 ErrMax= 1.73D-04  0.00D+00 EMaxC= 1.00D-01 BMatC= 2.97D-06 BMatP= 1.16D-05
 IDIUse=3 WtCom= 9.98D-01 WtEn= 1.73D-03
 Coeff-Com: -0.364D-04-0.160D-02 0.121D-01 0.767D-01 0.420D+00 0.492D+00
 Coeff-En:   0.000D+00 0.000D+00 0.000D+00 0.000D+00 0.120D+00 0.880D+00
 Coeff:     -0.363D-04-0.160D-02 0.121D-01 0.766D-01 0.420D+00 0.493D+00
 Gap=     0.213 Goal=   None    Shift=    0.000
 RMSDP=1.06D-05 MaxDP=2.21D-04 DE=-9.63D-06 OVMax= 6.21D-04

 Cycle   7  Pass 0  IDiag  1:
 RMSU=  7.93D-06    CP:  9.32D-01  1.23D+00  8.18D-01  7.63D-01  8.95D-01
                    CP:  8.03D-01
 E= -538.575956224139     Delta-E=       -0.000002760304 Rises=F Damp=F
 DIIS: error= 4.36D-05 at cycle   7 NSaved=   7.
 NSaved= 7 IEnMin= 7 EnMin= -538.575956224139     IErMin= 7 ErrMin= 4.36D-05
 ErrMax= 4.36D-05  0.00D+00 EMaxC= 1.00D-01 BMatC= 7.00D-08 BMatP= 2.97D-06
 IDIUse=1 WtCom= 1.00D+00 WtEn= 0.00D+00
 Coeff-Com:  0.505D-03-0.169D-02-0.844D-02-0.224D-01-0.597D-01 0.689D-01
 Coeff-Com:  0.102D+01
 Coeff:      0.505D-03-0.169D-02-0.844D-02-0.224D-01-0.597D-01 0.689D-01
 Coeff:      0.102D+01
 Gap=     0.213 Goal=   None    Shift=    0.000
 RMSDP=3.59D-06 MaxDP=5.69D-05 DE=-2.76D-06 OVMax= 3.23D-04

 Initial convergence to 1.0D-05 achieved.  Increase integral accuracy.
 Cycle   8  Pass 1  IDiag  1:
 E= -538.575949823414     Delta-E=        0.000006400725 Rises=F Damp=F
 DIIS: error= 1.17D-04 at cycle   1 NSaved=   1.
 NSaved= 1 IEnMin= 1 EnMin= -538.575949823414     IErMin= 1 ErrMin= 1.17D-04
 ErrMax= 1.17D-04  0.00D+00 EMaxC= 1.00D-01 BMatC= 1.03D-06 BMatP= 1.03D-06
 IDIUse=3 WtCom= 9.99D-01 WtEn= 1.17D-03
 Coeff-Com:  0.100D+01
 Coeff-En:   0.100D+01
 Coeff:      0.100D+01
 Gap=     0.213 Goal=   None    Shift=    0.000
 RMSDP=3.59D-06 MaxDP=5.69D-05 DE= 6.40D-06 OVMax= 1.78D-04

 Cycle   9  Pass 1  IDiag  1:
 RMSU=  8.97D-05    CP:  9.99D-01
 E= -538.575950647997     Delta-E=       -0.000000824583 Rises=F Damp=F
 DIIS: error= 7.35D-06 at cycle   2 NSaved=   2.
 NSaved= 2 IEnMin= 2 EnMin= -538.575950647997     IErMin= 2 ErrMin= 7.35D-06
 ErrMax= 7.35D-06  0.00D+00 EMaxC= 1.00D-01 BMatC= 6.22D-09 BMatP= 1.03D-06
 IDIUse=1 WtCom= 1.00D+00 WtEn= 0.00D+00
 Coeff-Com: -0.290D-01 0.103D+01
 Coeff:     -0.290D-01 0.103D+01
 Gap=     0.213 Goal=   None    Shift=    0.000
 RMSDP=6.53D-06 MaxDP=2.00D-04 DE=-8.25D-07 OVMax= 4.55D-05

 Cycle  10  Pass 1  IDiag  1:
 RMSU=  1.67D-06    CP:  9.99D-01  1.07D+00
 E= -538.575950649408     Delta-E=       -0.000000001411 Rises=F Damp=F
 DIIS: error= 4.12D-06 at cycle   3 NSaved=   3.
 NSaved= 3 IEnMin= 3 EnMin= -538.575950649408     IErMin= 3 ErrMin= 4.12D-06
 ErrMax= 4.12D-06  0.00D+00 EMaxC= 1.00D-01 BMatC= 7.61D-09 BMatP= 6.22D-09
 IDIUse=1 WtCom= 1.00D+00 WtEn= 0.00D+00
 Coeff-Com: -0.207D-01 0.565D+00 0.456D+00
 Coeff:     -0.207D-01 0.565D+00 0.456D+00
 Gap=     0.213 Goal=   None    Shift=    0.000
 RMSDP=4.77D-07 MaxDP=1.36D-05 DE=-1.41D-09 OVMax= 2.36D-05

 Cycle  11  Pass 1  IDiag  1:
 RMSU=  4.29D-07    CP:  9.99D-01  1.07D+00  9.28D-01
 E= -538.575950657003     Delta-E=       -0.000000007595 Rises=F Damp=F
 DIIS: error= 1.35D-06 at cycle   4 NSaved=   4.
 NSaved= 4 IEnMin= 4 EnMin= -538.575950657003     IErMin= 4 ErrMin= 1.35D-06
 ErrMax= 1.35D-06  0.00D+00 EMaxC= 1.00D-01 BMatC= 1.05D-10 BMatP= 6.22D-09
 IDIUse=1 WtCom= 1.00D+00 WtEn= 0.00D+00
 Coeff-Com: -0.177D-02 0.282D-01 0.919D-01 0.882D+00
 Coeff:     -0.177D-02 0.282D-01 0.919D-01 0.882D+00
 Gap=     0.213 Goal=   None    Shift=    0.000
 RMSDP=2.06D-07 MaxDP=7.75D-06 DE=-7.59D-09 OVMax= 9.36D-06

 Cycle  12  Pass 1  IDiag  1:
 RMSU=  8.44D-08    CP:  9.99D-01  1.07D+00  9.85D-01  9.95D-01
 E= -538.575950657146     Delta-E=       -0.000000000143 Rises=F Damp=F
 DIIS: error= 5.53D-07 at cycle   5 NSaved=   5.
 NSaved= 5 IEnMin= 5 EnMin= -538.575950657146     IErMin= 5 ErrMin= 5.53D-07
 ErrMax= 5.53D-07  0.00D+00 EMaxC= 1.00D-01 BMatC= 5.18D-11 BMatP= 1.05D-10
 IDIUse=1 WtCom= 1.00D+00 WtEn= 0.00D+00
 Coeff-Com:  0.135D-02-0.476D-01-0.384D-03 0.486D+00 0.560D+00
 Coeff:      0.135D-02-0.476D-01-0.384D-03 0.486D+00 0.560D+00
 Gap=     0.213 Goal=   None    Shift=    0.000
 RMSDP=5.40D-08 MaxDP=1.43D-06 DE=-1.43D-10 OVMax= 3.75D-06

 Cycle  13  Pass 1  IDiag  1:
 RMSU=  3.61D-08    CP:  9.99D-01  1.07D+00  9.93D-01  1.04D+00  8.18D-01
 E= -538.575950657211     Delta-E=       -0.000000000065 Rises=F Damp=F
 DIIS: error= 2.48D-07 at cycle   6 NSaved=   6.
 NSaved= 6 IEnMin= 6 EnMin= -538.575950657211     IErMin= 6 ErrMin= 2.48D-07
 ErrMax= 2.48D-07  0.00D+00 EMaxC= 1.00D-01 BMatC= 2.61D-12 BMatP= 5.18D-11
 IDIUse=1 WtCom= 1.00D+00 WtEn= 0.00D+00
 Coeff-Com:  0.531D-03-0.151D-01-0.971D-02 0.286D-01 0.153D+00 0.843D+00
 Coeff:      0.531D-03-0.151D-01-0.971D-02 0.286D-01 0.153D+00 0.843D+00
 Gap=     0.213 Goal=   None    Shift=    0.000
 RMSDP=1.72D-08 MaxDP=3.57D-07 DE=-6.46D-11 OVMax= 1.93D-06

 Cycle  14  Pass 1  IDiag  1:
 RMSU=  1.35D-08    CP:  9.99D-01  1.07D+00  9.94D-01  1.04D+00  9.35D-01
                    CP:  1.06D+00
 E= -538.575950657215     Delta-E=       -0.000000000005 Rises=F Damp=F
 DIIS: error= 8.19D-08 at cycle   7 NSaved=   7.
 NSaved= 7 IEnMin= 7 EnMin= -538.575950657215     IErMin= 7 ErrMin= 8.19D-08
 ErrMax= 8.19D-08  0.00D+00 EMaxC= 1.00D-01 BMatC= 1.18D-12 BMatP= 2.61D-12
 IDIUse=1 WtCom= 1.00D+00 WtEn= 0.00D+00
 Coeff-Com: -0.819D-04 0.508D-02-0.566D-02-0.129D+00-0.740D-01 0.497D+00
 Coeff-Com:  0.706D+00
 Coeff:     -0.819D-04 0.508D-02-0.566D-02-0.129D+00-0.740D-01 0.497D+00
 Coeff:      0.706D+00
 Gap=     0.213 Goal=   None    Shift=    0.000
 RMSDP=9.43D-09 MaxDP=2.14D-07 DE=-4.55D-12 OVMax= 1.02D-06

 SCF Done:  E(RLC-wHPBE) =  -538.575950657     A.U. after   14 cycles
            NFock= 14  Conv=0.94D-08     -V/T= 2.0090
 KE= 5.337866013677D+02 PE=-2.810011881443D+03 EE= 9.562901951116D+02
 Leave Link  502 at Tue May 10 16:50:53 2022, MaxMem=  6442450944 cpu:             287.8 elap:              18.1
 (Enter /home1/apps/gaussian/16rA.03/g16/l601.exe)
 Copying SCF densities to generalized density rwf, IOpCl= 0 IROHF=0.

 **********************************************************************

            Population analysis using the SCF density.

 **********************************************************************

 Orbital symmetries:
       Occupied  (A) (A) (A) (A) (A) (A) (A) (A) (A) (A) (A) (A)
                 (A) (A) (A) (A) (A) (A) (A) (A) (A) (A) (A) (A)
                 (A) (A) (A) (A) (A) (A) (A) (A) (A) (A) (A) (A)
                 (A) (A) (A) (A) (A) (A) (A) (A) (A) (A) (A)
       Virtual   (A) (A) (A) (A) (A) (A) (A) (A) (A) (A) (A) (A)
                 (A) (A) (A) (A) (A) (A) (A) (A) (A) (A) (A) (A)
                 (A) (A) (A) (A) (A) (A) (A) (A) (A) (A) (A) (A)
                 (A) (A) (A) (A) (A) (A) (A) (A) (A) (A) (A) (A)
                 (A) (A) (A) (A) (A) (A) (A) (A) (A) (A) (A) (A)
                 (A) (A) (A) (A) (A) (A) (A) (A) (A) (A) (A) (A)
                 (A) (A) (A) (A) (A) (A) (A) (A) (A) (A) (A) (A)
                 (A) (A) (A) (A) (A) (A) (A) (A) (A) (A) (A) (A)
                 (A) (A) (A) (A) (A) (A) (A) (A) (A) (A) (A) (A)
                 (A) (A) (A) (A) (A) (A) (A) (A) (A) (A) (A) (A)
                 (A) (A) (A) (A) (A) (A) (A) (A) (A) (A) (A) (A)
                 (A) (A) (A) (A) (A) (A) (A) (A) (A) (A) (A) (A)
                 (A) (A) (A) (A) (A) (A) (A) (A) (A) (A) (A) (A)
                 (A) (A) (A) (A) (A) (A) (A) (A) (A) (A) (A) (A)
                 (A) (A) (A) (A) (A) (A) (A) (A) (A) (A) (A) (A)
                 (A) (A) (A) (A) (A) (A) (A) (A) (A) (A) (A) (A)
                 (A) (A) (A) (A) (A) (A) (A)
 The electronic state is 1-A.
 Alpha  occ. eigenvalues --   -9.98734  -9.98672  -9.98646  -9.98643  -9.98586
 Alpha  occ. eigenvalues --   -9.98536  -9.98493  -9.98443  -9.98442  -9.98421
 Alpha  occ. eigenvalues --   -9.98393  -9.98327  -9.98280  -9.98245  -0.90792
 Alpha  occ. eigenvalues --   -0.87357  -0.82121  -0.80213  -0.76859  -0.76333
 Alpha  occ. eigenvalues --   -0.71293  -0.67709  -0.63948  -0.63754  -0.62196
 Alpha  occ. eigenvalues --   -0.56587  -0.56269  -0.54318  -0.49885  -0.49484
 Alpha  occ. eigenvalues --   -0.48892  -0.48392  -0.46494  -0.46075  -0.44640
 Alpha  occ. eigenvalues --   -0.44554  -0.42834  -0.42442  -0.40779  -0.39064
 Alpha  occ. eigenvalues --   -0.37260  -0.36588  -0.36277  -0.35715  -0.31360
 Alpha  occ. eigenvalues --   -0.30379  -0.24263
 Alpha virt. eigenvalues --   -0.02932   0.03284   0.04309   0.07836   0.10754
 Alpha virt. eigenvalues --    0.11677   0.12052   0.12668   0.15601   0.15755
 Alpha virt. eigenvalues --    0.18058   0.18526   0.19893   0.20207   0.20506
 Alpha virt. eigenvalues --    0.24247   0.25518   0.28743   0.31424   0.32481
 Alpha virt. eigenvalues --    0.32583   0.33629   0.34341   0.35130   0.36040
 Alpha virt. eigenvalues --    0.36636   0.38609   0.39465   0.39698   0.41121
 Alpha virt. eigenvalues --    0.42426   0.43792   0.44542   0.46668   0.47228
 Alpha virt. eigenvalues --    0.48242   0.49184   0.49361   0.51565   0.51949
 Alpha virt. eigenvalues --    0.52176   0.53211   0.53420   0.54103   0.54799
 Alpha virt. eigenvalues --    0.55073   0.55969   0.56929   0.57185   0.58149
 Alpha virt. eigenvalues --    0.60578   0.60987   0.62376   0.64730   0.66433
 Alpha virt. eigenvalues --    0.66729   0.68381   0.68631   0.68953   0.69318
 Alpha virt. eigenvalues --    0.69569   0.71596   0.71643   0.72878   0.73114
 Alpha virt. eigenvalues --    0.73837   0.74856   0.75720   0.77082   0.79599
 Alpha virt. eigenvalues --    0.80415   0.81396   0.81654   0.82199   0.83775
 Alpha virt. eigenvalues --    0.84975   0.85541   0.86088   0.87963   0.91814
 Alpha virt. eigenvalues --    0.94149   0.96135   0.96373   0.96728   1.10047
 Alpha virt. eigenvalues --    1.10487   1.17591   1.17687   1.17808   1.19068
 Alpha virt. eigenvalues --    1.19214   1.23120   1.24474   1.25311   1.25484
 Alpha virt. eigenvalues --    1.25931   1.27421   1.28694   1.29151   1.30711
 Alpha virt. eigenvalues --    1.32099   1.32211   1.32321   1.32870   1.34631
 Alpha virt. eigenvalues --    1.35949   1.37130   1.43359   1.51511   1.52626
 Alpha virt. eigenvalues --    1.55308   1.66344   1.67166   1.68155   1.69842
 Alpha virt. eigenvalues --    1.70026   1.70957   1.72695   1.74344   1.74725
 Alpha virt. eigenvalues --    1.75211   1.76503   1.76775   1.77722   1.78660
 Alpha virt. eigenvalues --    1.79767   1.81179   1.81276   1.82054   1.82460
 Alpha virt. eigenvalues --    1.82683   1.85081   1.87909   1.92480   1.92771
 Alpha virt. eigenvalues --    1.94793   1.95791   1.96175   1.99372   2.01048
 Alpha virt. eigenvalues --    2.02512   2.03448   2.05672   2.07243   2.07893
 Alpha virt. eigenvalues --    2.08548   2.13146   2.13260   2.14085   2.14324
 Alpha virt. eigenvalues --    2.15584   2.18740   2.19408   2.19589   2.20548
 Alpha virt. eigenvalues --    2.22247   2.26291   2.26941   2.30441   2.30539
 Alpha virt. eigenvalues --    2.31440   2.32976   2.34904   2.40681   2.42948
 Alpha virt. eigenvalues --    2.43030   2.45142   2.45165   2.46532   2.55966
 Alpha virt. eigenvalues --    2.57137   2.57495   2.58973   2.60521   2.64316
 Alpha virt. eigenvalues --    2.68358   2.69446   2.72397   2.73169   2.73630
 Alpha virt. eigenvalues --    2.74209   2.76320   2.76510   2.78986   2.79459
 Alpha virt. eigenvalues --    2.86118   2.91436   2.95293   2.95831   3.00759
 Alpha virt. eigenvalues --    3.06793   3.10839   3.13003   3.21256   3.22756
 Alpha virt. eigenvalues --    3.31417   3.55304   3.72631   3.73886
          Condensed to atoms (all electrons):
               1          2          3          4          5          6
     1  C    5.211786   0.168775   0.132419  -0.167937  -0.000759   0.000308
     2  C    0.168775   5.190027   0.194889   0.141596   0.023019  -0.002263
     3  C    0.132419   0.194889   5.409791   0.179932  -0.151490   0.026421
     4  C   -0.167937   0.141596   0.179932   5.657909   0.165763   0.162700
     5  C   -0.000759   0.023019  -0.151490   0.165763   5.697136   0.155347
     6  C    0.000308  -0.002263   0.026421   0.162700   0.155347   5.659918
     7  C   -0.000009   0.000030  -0.001296   0.024445  -0.155837   0.170769
     8  C    0.000000  -0.000000   0.000032  -0.001985   0.023038   0.131291
     9  C   -0.000000   0.000000  -0.000010   0.000310  -0.002063  -0.171584
    10  C    0.000023  -0.000008   0.000168  -0.002145   0.024533   0.016196
    11  C   -0.001985   0.000355  -0.001265  -0.146708   0.015713  -0.062438
    12  C    0.023680  -0.001788   0.025703   0.023916  -0.144682   0.043656
    13  C    0.133705  -0.158921   0.019009  -0.079426   0.025024  -0.155765
    14  C    0.188957   0.137440  -0.171916   0.030039   0.024858  -0.001251
    15  H    0.445256  -0.078998   0.016623  -0.001570   0.000063  -0.000002
    16  H   -0.079916   0.441420  -0.077336   0.017529  -0.000801   0.000019
    17  H    0.016574  -0.082918   0.463915  -0.087022  -0.025402   0.001598
    18  H   -0.000047   0.001205  -0.023410  -0.088657   0.468703  -0.093888
    19  H   -0.000000   0.000000  -0.000062   0.001470  -0.026437  -0.087350
    20  H    0.000000  -0.000000  -0.000000   0.000018  -0.000657   0.019227
    21  H   -0.000000   0.000000   0.000000  -0.000004   0.000077  -0.000746
    22  H    0.000000  -0.000000   0.000000  -0.000033  -0.000287   0.020040
    23  H    0.000952  -0.000037  -0.000483   0.023201  -0.001914   0.021469
    24  H   -0.091023   0.016838  -0.002085   0.022830  -0.000472  -0.000056
               7          8          9         10         11         12
     1  C   -0.000009   0.000000  -0.000000   0.000023  -0.001985   0.023680
     2  C    0.000030  -0.000000   0.000000  -0.000008   0.000355  -0.001788
     3  C   -0.001296   0.000032  -0.000010   0.000168  -0.001265   0.025703
     4  C    0.024445  -0.001985   0.000310  -0.002145  -0.146708   0.023916
     5  C   -0.155837   0.023038  -0.002063   0.024533   0.015713  -0.144682
     6  C    0.170769   0.131291  -0.171584   0.016196  -0.062438   0.043656
     7  C    5.387302   0.213546   0.148998  -0.179876   0.047221   0.027535
     8  C    0.213546   5.210784   0.136173   0.135921  -0.168789  -0.000239
     9  C    0.148998   0.136173   5.215469   0.190460   0.150674   0.023949
    10  C   -0.179876   0.135921   0.190460   5.404460   0.206864  -0.156131
    11  C    0.047221  -0.168789   0.150674   0.206864   5.616418   0.148866
    12  C    0.027535  -0.000239   0.023949  -0.156131   0.148866   5.667609
    13  C   -0.000051   0.000203  -0.001915   0.024073   0.144151   0.195507
    14  C    0.000157  -0.000007   0.000023  -0.000874   0.023865  -0.146666
    15  H    0.000000   0.000000  -0.000000  -0.000000   0.000014  -0.000631
    16  H   -0.000000  -0.000000   0.000000   0.000000  -0.000002   0.000063
    17  H   -0.000055   0.000000  -0.000000   0.000000  -0.000040  -0.000356
    18  H   -0.021137   0.000904  -0.000036  -0.000271   0.019881  -0.002797
    19  H    0.457206  -0.082265   0.018223  -0.001865   0.020319  -0.000576
    20  H   -0.075211   0.449224  -0.089033   0.017064  -0.001968   0.000058
    21  H    0.016775  -0.085142   0.444923  -0.077136   0.018030  -0.000885
    22  H   -0.002489   0.016430  -0.083971   0.456886  -0.079866  -0.025544
    23  H   -0.000620  -0.000029   0.000902  -0.023273  -0.092554   0.454937
    24  H    0.000001  -0.000000   0.000000  -0.000048   0.001274  -0.029942
              13         14         15         16         17         18
     1  C    0.133705   0.188957   0.445256  -0.079916   0.016574  -0.000047
     2  C   -0.158921   0.137440  -0.078998   0.441420  -0.082918   0.001205
     3  C    0.019009  -0.171916   0.016623  -0.077336   0.463915  -0.023410
     4  C   -0.079426   0.030039  -0.001570   0.017529  -0.087022  -0.088657
     5  C    0.025024   0.024858   0.000063  -0.000801  -0.025402   0.468703
     6  C   -0.155765  -0.001251  -0.000002   0.000019   0.001598  -0.093888
     7  C   -0.000051   0.000157   0.000000  -0.000000  -0.000055  -0.021137
     8  C    0.000203  -0.000007   0.000000  -0.000000   0.000000   0.000904
     9  C   -0.001915   0.000023  -0.000000   0.000000  -0.000000  -0.000036
    10  C    0.024073  -0.000874  -0.000000   0.000000   0.000000  -0.000271
    11  C    0.144151   0.023865   0.000014  -0.000002  -0.000040   0.019881
    12  C    0.195507  -0.146666  -0.000631   0.000063  -0.000356  -0.002797
    13  C    5.605886   0.215025   0.016618  -0.000964   0.019463   0.021791
    14  C    0.215025   5.353781  -0.078832   0.017233  -0.002323  -0.000452
    15  H    0.016618  -0.078832   0.717913  -0.016265  -0.000318  -0.000001
    16  H   -0.000964   0.017233  -0.016265   0.725136  -0.012938  -0.000013
    17  H    0.019463  -0.002323  -0.000318  -0.012938   0.728308   0.006591
    18  H    0.021791  -0.000452  -0.000001  -0.000013   0.006591   0.738915
    19  H   -0.000044   0.000000   0.000000  -0.000000   0.000002   0.006444
    20  H   -0.000002   0.000000   0.000000  -0.000000  -0.000000  -0.000017
    21  H    0.000021  -0.000000  -0.000000   0.000000   0.000000  -0.000001
    22  H    0.001013  -0.000042  -0.000000   0.000000   0.000000   0.000011
    23  H   -0.084073  -0.026147  -0.000017  -0.000001   0.000014   0.000043
    24  H   -0.077766   0.459237  -0.012912  -0.000371   0.000039   0.000014
              19         20         21         22         23         24
     1  C   -0.000000   0.000000  -0.000000   0.000000   0.000952  -0.091023
     2  C    0.000000  -0.000000   0.000000  -0.000000  -0.000037   0.016838
     3  C   -0.000062  -0.000000   0.000000   0.000000  -0.000483  -0.002085
     4  C    0.001470   0.000018  -0.000004  -0.000033   0.023201   0.022830
     5  C   -0.026437  -0.000657   0.000077  -0.000287  -0.001914  -0.000472
     6  C   -0.087350   0.019227  -0.000746   0.020040   0.021469  -0.000056
     7  C    0.457206  -0.075211   0.016775  -0.002489  -0.000620   0.000001
     8  C   -0.082265   0.449224  -0.085142   0.016430  -0.000029  -0.000000
     9  C    0.018223  -0.089033   0.444923  -0.083971   0.000902   0.000000
    10  C   -0.001865   0.017064  -0.077136   0.456886  -0.023273  -0.000048
    11  C    0.020319  -0.001968   0.018030  -0.079866  -0.092554   0.001274
    12  C   -0.000576   0.000058  -0.000885  -0.025544   0.454937  -0.029942
    13  C   -0.000044  -0.000002   0.000021   0.001013  -0.084073  -0.077766
    14  C    0.000000   0.000000  -0.000000  -0.000042  -0.026147   0.459237
    15  H    0.000000   0.000000  -0.000000  -0.000000  -0.000017  -0.012912
    16  H   -0.000000  -0.000000   0.000000   0.000000  -0.000001  -0.000371
    17  H    0.000002  -0.000000   0.000000   0.000000   0.000014   0.000039
    18  H    0.006444  -0.000017  -0.000001   0.000011   0.000043   0.000014
    19  H    0.738208  -0.015441  -0.000404   0.000042   0.000017   0.000000
    20  H   -0.015441   0.721863  -0.014864  -0.000297  -0.000001   0.000000
    21  H   -0.000404  -0.014864   0.727979  -0.013519  -0.000015  -0.000000
    22  H    0.000042  -0.000297  -0.013519   0.723443   0.007399  -0.000001
    23  H    0.000017  -0.000001  -0.000015   0.007399   0.751643   0.008401
    24  H    0.000000   0.000000  -0.000000  -0.000001   0.008401   0.741655
 Mulliken charges:
               1
     1  C    0.019240
     2  C    0.009338
     3  C   -0.039549
     4  C    0.123828
     5  C   -0.112474
     6  C    0.146383
     7  C   -0.057406
     8  C    0.020911
     9  C    0.018510
    10  C   -0.035021
    11  C    0.141969
    12  C   -0.125241
    13  C    0.137437
    14  C   -0.022105
    15  H   -0.006941
    16  H   -0.012792
    17  H   -0.025131
    18  H   -0.033776
    19  H   -0.027488
    20  H   -0.009963
    21  H   -0.015088
    22  H   -0.019214
    23  H   -0.039812
    24  H   -0.035615
 Sum of Mulliken charges =  -0.00000
 Mulliken charges with hydrogens summed into heavy atoms:
               1
     1  C    0.012299
     2  C   -0.003454
     3  C   -0.064679
     4  C    0.123828
     5  C   -0.146250
     6  C    0.146383
     7  C   -0.084894
     8  C    0.010948
     9  C    0.003422
    10  C   -0.054235
    11  C    0.141969
    12  C   -0.165053
    13  C    0.137437
    14  C   -0.057720
 Electronic spatial extent (au):  <R**2>=           2749.1458
 Charge=             -0.0000 electrons
 Dipole moment (field-independent basis, Debye):
    X=              0.0120    Y=              0.0342    Z=              0.0000  Tot=              0.0363
 Quadrupole moment (field-independent basis, Debye-Ang):
   XX=            -71.6790   YY=            -72.0060   ZZ=            -85.8538
   XY=              0.0273   XZ=             -0.0003   YZ=             -0.0000
 Traceless Quadrupole moment (field-independent basis, Debye-Ang):
   XX=              4.8339   YY=              4.5069   ZZ=             -9.3408
   XY=              0.0273   XZ=             -0.0003   YZ=             -0.0000
 Octapole moment (field-independent basis, Debye-Ang**2):
  XXX=              1.1006  YYY=              0.5459  ZZZ=              0.0000  XYY=             -0.3357
  XXY=              0.3406  XXZ=              0.0001  XZZ=             -0.1733  YZZ=             -0.0209
  YYZ=              0.0002  XYZ=             -0.0002
 Hexadecapole moment (field-independent basis, Debye-Ang**3):
 XXXX=          -2748.7180 YYYY=           -677.2700 ZZZZ=            -92.8477 XXXY=             -4.7277
 XXXZ=             -0.0035 YYYX=              2.1268 YYYZ=             -0.0006 ZZZX=             -0.0004
 ZZZY=              0.0000 XXYY=           -581.9507 XXZZ=           -569.1763 YYZZ=           -150.2396
 XXYZ=              0.0018 YYXZ=             -0.0019 ZZXY=             -0.0407
 N-N= 7.813591343066D+02 E-N=-2.810011885710D+03  KE= 5.337866013677D+02
 No NMR shielding tensors so no spin-rotation constants.
 Leave Link  601 at Tue May 10 16:50:54 2022, MaxMem=  6442450944 cpu:               2.0 elap:               0.2
 (Enter /home1/apps/gaussian/16rA.03/g16/l701.exe)
 ... and contract with generalized density number  0.
 Compute integral first derivatives.
   1 Symmetry operations used in ECPInt.
 ECPInt:  NShTT=    6555 NPrTT=   24083 LenC2=    6270 LenP2D=   17189.
 LDataN:  DoStor=T MaxTD1= 5 Len=  102
 Leave Link  701 at Tue May 10 16:50:54 2022, MaxMem=  6442450944 cpu:               2.9 elap:               0.2
 (Enter /home1/apps/gaussian/16rA.03/g16/l702.exe)
 L702 exits ... SP integral derivatives will be done elsewhere.
 Leave Link  702 at Tue May 10 16:50:54 2022, MaxMem=  6442450944 cpu:               0.3 elap:               0.0
 (Enter /home1/apps/gaussian/16rA.03/g16/l703.exe)
 Integral derivatives from FoFJK, PRISM(SPDF).
 Compute integral first derivatives, UseDBF=F ICtDFT=           0.
 Calling FoFJK, ICntrl=      2127 FMM=F ISym2X=0 I1Cent= 0 IOpClX= 0 NMat=1 NMatS=1 NMatT=0.
 FoFJK:  IHMeth= 1 ICntrl=    2127 DoSepK=T KAlg= 0 I1Cent=           0 FoldK=F
 IRaf=         1 NMat=       1 IRICut=       1 DoRegI=T DoRafI=F ISym2E= 0 IDoP0=0 IntGTp=1.
 FoFCou: FMM=F IPFlag=           0 FMFlag=      100000 FMFlg1=         800
         NFxFlg=           0 DoJE=F BraDBF=F KetDBF=F FulRan=T
         wScrn=  0.000000 ICntrl=      2527 IOpCl=  0 I1Cent=           0 NGrid=           0
         NMat0=    1 NMatS0=      1 NMatT0=    0 NMatD0=    1 NMtDS0=    0 NMtDT0=    0
 Symmetry not used in FoFCou.
 Leave Link  703 at Tue May 10 16:50:59 2022, MaxMem=  6442450944 cpu:              81.5 elap:               5.1
 (Enter /home1/apps/gaussian/16rA.03/g16/l716.exe)
 Dipole        = 4.71481496D-03 1.34641475D-02 8.45528764D-06
 ***** Axes restored to original set *****
 -------------------------------------------------------------------
 Center     Atomic                   Forces (Hartrees/Bohr)
 Number     Number              X              Y              Z
 -------------------------------------------------------------------
      1        6          -0.000675708    0.036607952   -0.004472769
      2        6           0.009284840   -0.041334149    0.004503803
      3        6          -0.061623103   -0.000333576    0.003983249
      4        6           0.018176275   -0.039907974    0.003758148
      5        6           0.001232933   -0.021355552    0.002553047
      6        6           0.001540413   -0.034840224    0.004196213
      7        6           0.045459257   -0.020750354   -0.000348043
      8        6          -0.003307006   -0.040237065    0.005175897
      9        6           0.006466779    0.040670393   -0.005431853
     10        6           0.038538869    0.020017517   -0.004932373
     11        6          -0.034110814    0.025418085   -0.000951264
     12        6          -0.001735295    0.040269009   -0.004853199
     13        6          -0.003026975    0.034937326   -0.004113747
     14        6          -0.025639357   -0.002255661    0.001918967
     15        1           0.001287982    0.002342611   -0.000369835
     16        1          -0.005672781   -0.007343104    0.001267877
     17        1           0.002662978   -0.008459524    0.000874093
     18        1           0.002817218    0.001382837   -0.000349809
     19        1          -0.003563147   -0.008647283    0.001292942
     20        1           0.002201563   -0.000325294   -0.000102653
     21        1           0.009054888    0.005453137   -0.001250274
     22        1          -0.000049670   -0.002679709    0.000331267
     23        1           0.002259976    0.001295019   -0.000305019
     24        1          -0.001580117    0.020075583   -0.002374667
 -------------------------------------------------------------------
 Cartesian Forces:  Max     0.061623103 RMS     0.018485123
 Leave Link  716 at Tue May 10 16:50:59 2022, MaxMem=  6442450944 cpu:               0.4 elap:               0.0
 (Enter /home1/apps/gaussian/16rA.03/g16/l103.exe)

 GradGradGradGradGradGradGradGradGradGradGradGradGradGradGradGradGradGrad
 Berny optimization.
 FormGI is forming the generalized inverse of G from B-inverse, IUseBI=4.
 Internal  Forces:  Max     0.066655565 RMS     0.014887268
 Search for a local minimum.
 Step number   1 out of a maximum of  142
 All quantities printed in internal units (Hartrees-Bohrs-Radians)
 RMS Force = .14887D-01 SwitMx=.10000D-02 MixMth= 1
 Mixed Optimization -- RFO/linear search
 Second derivative matrix not updated -- first step.
 ITU=  0
     Eigenvalues ---    0.02211   0.02221   0.02254   0.02275   0.02308
     Eigenvalues ---    0.02334   0.02342   0.02347   0.02356   0.02358
     Eigenvalues ---    0.02376   0.02379   0.02382   0.02389   0.02391
     Eigenvalues ---    0.02394   0.02409   0.02412   0.02418   0.02419
     Eigenvalues ---    0.02428   0.16000   0.16000   0.16000   0.16000
     Eigenvalues ---    0.16000   0.16000   0.16000   0.16000   0.16000
     Eigenvalues ---    0.16000   0.22000   0.22000   0.22445   0.22615
     Eigenvalues ---    0.23288   0.23878   0.24491   0.24641   0.25000
     Eigenvalues ---    0.33313   0.33454   0.33574   0.33654   0.34054
     Eigenvalues ---    0.34995   0.35006   0.35190   0.35304   0.36977
     Eigenvalues ---    0.40576   0.42573   0.44192   0.44425   0.45024
     Eigenvalues ---    0.46103   0.47369   0.48671   0.49030   0.49481
     Eigenvalues ---    0.49503   0.49519   0.49607   0.49634   0.50022
     Eigenvalues ---    0.50138
 RFO step:  Lambda=-5.59349728D-02 EMin= 2.21139142D-02
 Linear search not attempted -- first point.
 Maximum step size (   0.300) exceeded in Quadratic search.
    -- Step size scaled by   0.903
 Iteration  1 RMS(Cart)=  0.05855943 RMS(Int)=  0.00031708
 Iteration  2 RMS(Cart)=  0.00041775 RMS(Int)=  0.00010783
 Iteration  3 RMS(Cart)=  0.00000019 RMS(Int)=  0.00010783
 ITry= 1 IFail=0 DXMaxC= 1.74D-01 DCOld= 1.00D+10 DXMaxT= 3.00D-01 DXLimC= 3.00D+00 Rises=F
 Variable       Old X    -DE/DX   Delta X   Delta X   Delta X     New X
                                 (Linear)    (Quad)   (Total)
    R1        2.60632   0.04494   0.00000   0.07043   0.07022   2.67654
    R2        2.60798   0.00518   0.00000   0.00648   0.00633   2.61431
    R3        2.07917  -0.00001   0.00000  -0.00002  -0.00002   2.07915
    R4        2.63826  -0.00798   0.00000  -0.01552  -0.01559   2.62267
    R5        2.05664   0.00854   0.00000   0.01900   0.01900   2.07564
    R6        2.60054   0.05158   0.00000   0.08615   0.08629   2.68683
    R7        2.05367   0.00846   0.00000   0.01872   0.01872   2.07240
    R8        2.60236   0.03876   0.00000   0.06336   0.06338   2.66574
    R9        2.59791   0.06666   0.00000   0.11230   0.11249   2.71039
   R10        2.60511   0.03193   0.00000   0.05177   0.05181   2.65692
   R11        2.08262  -0.00145   0.00000  -0.00334  -0.00334   2.07928
   R12        2.60844   0.04923   0.00000   0.08249   0.08251   2.69095
   R13        2.61198   0.06236   0.00000   0.10572   0.10595   2.71793
   R14        2.61053   0.00656   0.00000   0.00935   0.00917   2.61970
   R15        2.05683   0.00863   0.00000   0.01919   0.01919   2.07602
   R16        2.59480   0.04931   0.00000   0.07690   0.07670   2.67150
   R17        2.07239   0.00205   0.00000   0.00467   0.00467   2.07706
   R18        2.60013   0.01141   0.00000   0.01740   0.01738   2.61751
   R19        2.05185   0.01064   0.00000   0.02348   0.02348   2.07533
   R20        2.59871   0.05090   0.00000   0.08422   0.08440   2.68311
   R21        2.08506  -0.00270   0.00000  -0.00627  -0.00627   2.07879
   R22        2.60288   0.03643   0.00000   0.05964   0.05962   2.66250
   R23        2.59610   0.03561   0.00000   0.05823   0.05819   2.65429
   R24        2.08055   0.00124   0.00000   0.00287   0.00287   2.08342
   R25        2.64215   0.03194   0.00000   0.05758   0.05764   2.69979
   R26        2.02581   0.02017   0.00000   0.04277   0.04277   2.06858
    A1        2.08931   0.00790   0.00000   0.01467   0.01433   2.10364
    A2        2.07518  -0.00114   0.00000   0.00440   0.00457   2.07975
    A3        2.11869  -0.00676   0.00000  -0.01907  -0.01890   2.09979
    A4        2.11108   0.00223   0.00000  -0.00271  -0.00297   2.10811
    A5        2.05754   0.00283   0.00000   0.01785   0.01798   2.07552
    A6        2.11456  -0.00506   0.00000  -0.01514  -0.01501   2.09955
    A7        2.06783   0.00677   0.00000   0.02349   0.02358   2.09140
    A8        2.08480  -0.00050   0.00000   0.00031   0.00027   2.08507
    A9        2.13056  -0.00627   0.00000  -0.02380  -0.02385   2.10671
   A10        2.08676   0.01361   0.00000   0.03303   0.03279   2.11955
   A11        2.12087  -0.01376   0.00000  -0.03245  -0.03214   2.08873
   A12        2.07555   0.00016   0.00000  -0.00058  -0.00065   2.07490
   A13        2.10336   0.00438   0.00000   0.01611   0.01628   2.11964
   A14        2.07183   0.00073   0.00000   0.00417   0.00408   2.07591
   A15        2.10800  -0.00511   0.00000  -0.02028  -0.02036   2.08763
   A16        2.10286   0.00859   0.00000   0.02181   0.02160   2.12446
   A17        2.12768  -0.00967   0.00000  -0.03147  -0.03143   2.09625
   A18        2.05265   0.00108   0.00000   0.00966   0.00983   2.06247
   A19        2.11588  -0.00111   0.00000  -0.00476  -0.00490   2.11098
   A20        2.11389  -0.00339   0.00000  -0.01413  -0.01406   2.09983
   A21        2.05341   0.00451   0.00000   0.01889   0.01896   2.07238
   A22        2.08407   0.00727   0.00000   0.01493   0.01455   2.09862
   A23        2.08624  -0.00273   0.00000  -0.00369  -0.00350   2.08274
   A24        2.11287  -0.00454   0.00000  -0.01124  -0.01105   2.10182
   A25        2.11033   0.00137   0.00000  -0.00360  -0.00381   2.10653
   A26        2.08727  -0.00032   0.00000   0.00332   0.00343   2.09070
   A27        2.08558  -0.00105   0.00000   0.00028   0.00038   2.08596
   A28        2.06803   0.00800   0.00000   0.02645   0.02664   2.09467
   A29        2.11721  -0.00393   0.00000  -0.01293  -0.01302   2.10419
   A30        2.09795  -0.00407   0.00000  -0.01352  -0.01362   2.08433
   A31        2.13541  -0.01661   0.00000  -0.04268  -0.04231   2.09310
   A32        2.02114   0.01245   0.00000   0.03474   0.03465   2.05578
   A33        2.12663   0.00415   0.00000   0.00793   0.00766   2.13430
   A34        2.15794  -0.00695   0.00000  -0.01831  -0.01825   2.13969
   A35        2.08620   0.00107   0.00000  -0.00089  -0.00092   2.08528
   A36        2.03905   0.00588   0.00000   0.01920   0.01917   2.05822
   A37        2.08070  -0.00037   0.00000  -0.00050  -0.00059   2.08011
   A38        2.08428  -0.00521   0.00000  -0.00871  -0.00845   2.07583
   A39        2.11821   0.00559   0.00000   0.00921   0.00904   2.12724
   A40        2.09300   0.00208   0.00000   0.00571   0.00564   2.09864
   A41        2.12529  -0.00318   0.00000  -0.01181  -0.01177   2.11352
   A42        2.06489   0.00110   0.00000   0.00610   0.00613   2.07102
    D1       -0.00000  -0.00000   0.00000  -0.00000  -0.00000  -0.00000
    D2        3.14159   0.00000   0.00000   0.00000   0.00000   3.14159
    D3        3.14156   0.00000   0.00000   0.00001   0.00001   3.14157
    D4       -0.00004   0.00000   0.00000   0.00001   0.00001  -0.00003
    D5        0.00000  -0.00000   0.00000  -0.00000  -0.00000  -0.00000
    D6        3.14159   0.00000   0.00000   0.00000   0.00000   3.14159
    D7       -3.14156  -0.00000   0.00000  -0.00001  -0.00001  -3.14157
    D8        0.00003  -0.00000   0.00000  -0.00001  -0.00001   0.00002
    D9        0.00000   0.00000   0.00000   0.00000   0.00000   0.00000
   D10       -3.14156  -0.00000   0.00000  -0.00001  -0.00001  -3.14156
   D11       -3.14159   0.00000   0.00000   0.00000   0.00000  -3.14159
   D12        0.00004  -0.00000   0.00000  -0.00001  -0.00001   0.00003
   D13        3.14159  -0.00000   0.00000  -0.00000  -0.00000   3.14159
   D14       -0.00000  -0.00000   0.00000  -0.00000  -0.00000  -0.00000
   D15       -0.00004   0.00000   0.00000   0.00001   0.00001  -0.00003
   D16        3.14156   0.00000   0.00000   0.00001   0.00001   3.14157
   D17       -3.14159   0.00000   0.00000   0.00000   0.00000  -3.14159
   D18        0.00002  -0.00000   0.00000  -0.00000  -0.00000   0.00002
   D19        0.00000  -0.00000   0.00000  -0.00000  -0.00000   0.00000
   D20       -3.14157  -0.00000   0.00000  -0.00001  -0.00001  -3.14157
   D21        3.14159  -0.00000   0.00000  -0.00000  -0.00000   3.14159
   D22       -0.00000  -0.00000   0.00000  -0.00000  -0.00000  -0.00000
   D23       -0.00000   0.00000   0.00000   0.00000   0.00000  -0.00000
   D24        3.14159   0.00000   0.00000   0.00000   0.00000   3.14159
   D25        3.14159  -0.00000   0.00000  -0.00000  -0.00000   3.14159
   D26       -0.00000  -0.00000   0.00000  -0.00000  -0.00000  -0.00000
   D27       -0.00002   0.00000   0.00000   0.00001   0.00001  -0.00002
   D28        3.14157   0.00000   0.00000   0.00001   0.00001   3.14157
   D29        3.14159  -0.00000   0.00000  -0.00000  -0.00000   3.14159
   D30       -0.00005   0.00000   0.00000   0.00001   0.00001  -0.00004
   D31       -0.00001  -0.00000   0.00000  -0.00000  -0.00000  -0.00001
   D32        3.14154   0.00000   0.00000   0.00001   0.00001   3.14155
   D33        3.14159   0.00000   0.00000   0.00000   0.00000   3.14159
   D34       -0.00000   0.00000   0.00000   0.00000   0.00000  -0.00000
   D35       -0.00000   0.00000   0.00000   0.00000   0.00000  -0.00000
   D36        3.14159   0.00000   0.00000   0.00000   0.00000   3.14159
   D37        0.00001  -0.00000   0.00000  -0.00000  -0.00000   0.00001
   D38        3.14155   0.00000   0.00000   0.00001   0.00001   3.14156
   D39       -3.14154  -0.00000   0.00000  -0.00001  -0.00001  -3.14155
   D40        0.00000   0.00000   0.00000  -0.00000  -0.00000   0.00000
   D41       -0.00000   0.00000   0.00000   0.00000   0.00000   0.00000
   D42       -3.14157  -0.00000   0.00000  -0.00000  -0.00000  -3.14157
   D43       -3.14154  -0.00000   0.00000  -0.00001  -0.00001  -3.14155
   D44        0.00008  -0.00000   0.00000  -0.00002  -0.00002   0.00006
   D45       -0.00001  -0.00000   0.00000  -0.00000  -0.00000  -0.00001
   D46        3.14154   0.00000   0.00000   0.00001   0.00001   3.14155
   D47        3.14156   0.00000   0.00000   0.00000   0.00000   3.14157
   D48       -0.00007   0.00000   0.00000   0.00001   0.00001  -0.00006
   D49        0.00001  -0.00000   0.00000  -0.00000  -0.00000   0.00001
   D50       -3.14159   0.00000   0.00000   0.00000   0.00000  -3.14158
   D51       -3.14154  -0.00000   0.00000  -0.00001  -0.00001  -3.14155
   D52        0.00005  -0.00000   0.00000  -0.00001  -0.00001   0.00004
   D53        0.00000  -0.00000   0.00000  -0.00000  -0.00000   0.00000
   D54        3.14158   0.00000   0.00000   0.00000   0.00000   3.14158
   D55       -3.14159  -0.00000   0.00000  -0.00000  -0.00000  -3.14159
   D56       -0.00001   0.00000   0.00000   0.00000   0.00000  -0.00001
   D57       -0.00000   0.00000   0.00000   0.00000   0.00000  -0.00000
   D58        3.14159   0.00000   0.00000   0.00000   0.00000   3.14159
   D59       -3.14158  -0.00000   0.00000  -0.00000  -0.00000  -3.14158
   D60        0.00002  -0.00000   0.00000  -0.00000  -0.00000   0.00001
   D61        0.00000   0.00000   0.00000   0.00000   0.00000   0.00000
   D62       -3.14158  -0.00000   0.00000  -0.00000  -0.00000  -3.14159
   D63       -3.14159   0.00000   0.00000   0.00000   0.00000  -3.14159
   D64        0.00001  -0.00000   0.00000  -0.00000  -0.00000   0.00001
         Item               Value     Threshold  Converged?
 Maximum Force            0.066656     0.000450     NO 
 RMS     Force            0.014887     0.000300     NO 
 Maximum Displacement     0.173726     0.001800     NO 
 RMS     Displacement     0.058499     0.001200     NO 
 Predicted change in Energy=-3.020921D-02
 Lowest energy point so far.  Saving SCF results.
 GradGradGradGradGradGradGradGradGradGradGradGradGradGradGradGradGradGrad

 Leave Link  103 at Tue May 10 16:50:59 2022, MaxMem=  6442450944 cpu:               1.2 elap:               0.1
 (Enter /home1/apps/gaussian/16rA.03/g16/l202.exe)
                          Input orientation:                          
 ---------------------------------------------------------------------
 Center     Atomic      Atomic             Coordinates (Angstroms)
 Number     Number       Type             X           Y           Z
 ---------------------------------------------------------------------
      1          6           0       -3.660489    0.720352    0.152711
      2          6           0       -3.655170   -0.685395    0.325722
      3          6           0       -2.462623   -1.395220    0.336928
      4          6           0       -1.228865   -0.707781    0.173195
      5          6           0        0.002938   -1.395210    0.179129
      6          6           0        1.223022   -0.715527    0.017230
      7          6           0        2.469780   -1.403509    0.022277
      8          6           0        3.663447   -0.717205   -0.138755
      9          6           0        3.660337    0.685885   -0.311576
     10          6           0        2.470115    1.394279   -0.322748
     11          6           0        1.235807    0.711771   -0.159593
     12          6           0       -0.002256    1.384291   -0.163290
     13          6           0       -1.226998    0.715700   -0.002460
     14          6           0       -2.473895    1.413058   -0.008654
     15          1           0       -4.621354    1.256304    0.148092
     16          1           0       -4.612657   -1.208685    0.451538
     17          1           0       -2.483730   -2.483278    0.472426
     18          1           0        0.002618   -2.487245    0.313794
     19          1           0        2.500974   -2.493630    0.154748
     20          1           0        4.610535   -1.274928   -0.130560
     21          1           0        4.610324    1.222068   -0.438517
     22          1           0        2.470261    2.486061   -0.457350
     23          1           0       -0.024904    2.478446   -0.296755
     24          1           0       -2.467216    2.499403   -0.143050
 ---------------------------------------------------------------------
                    Distance matrix (angstroms):
                    1          2          3          4          5
     1  C    0.000000
     2  C    1.416364   0.000000
     3  C    2.438127   1.387856   0.000000
     4  C    2.820067   2.431197   1.421809   0.000000
     5  C    4.230484   3.729219   2.470606   1.410650   0.000000
     6  C    5.092031   4.888029   3.761405   2.456854   1.405982
     7  C    6.489067   6.174364   4.942436   3.766535   2.471837
     8  C    7.469375   7.333410   6.181805   4.902257   3.736317
     9  C    7.335615   7.470154   6.499400   5.107015   4.236545
    10  C    6.185834   6.501128   5.705119   4.283347   3.757670
    11  C    4.906253   5.109722   4.285362   2.863648   2.464562
    12  C    3.731400   4.226880   3.745572   2.448378   2.800518
    13  C    2.438438   2.822550   2.469400   1.434279   2.449828
    14  C    1.383434   2.431198   2.829485   2.465994   3.749177
    15  H    1.100239   2.176065   3.424377   3.920107   5.330625
    16  H    2.171889   1.098382   2.161152   3.431971   4.627388
    17  H    3.427860   2.150854   1.096665   2.194678   2.730097
    18  H    4.871651   4.077526   2.696380   2.168597   1.100308
    19  H    6.949339   6.418493   5.086943   4.135371   2.728975
    20  H    8.513003   8.299254   7.089610   5.874735   4.619559
    21  H    8.307083   8.517092   7.581431   6.180181   5.334757
    22  H    6.409057   6.942063   6.326814   4.927651   4.642957
    23  H    4.063299   4.855533   4.620532   3.438374   3.902877
    24  H    2.162498   3.431314   3.924091   3.452470   4.623144
[...]
      1          6           0        3.676656   -0.714935   -0.000000
      2          6           0        3.676690    0.714834   -0.000000
      3          6           0        2.489464    1.411883   -0.000000
      4          6           0        1.229278    0.724045    0.000000
      5          6           0        0.000004    1.408277    0.000000
      6          6           0       -1.229396    0.724084    0.000000
      7          6           0       -2.489417    1.411907    0.000000
      8          6           0       -3.676677    0.714716    0.000000
      9          6           0       -3.676682   -0.714835   -0.000000
     10          6           0       -2.489285   -1.411843   -0.000000
     11          6           0       -1.229259   -0.724008    0.000000
     12          6           0        0.000048   -1.408328    0.000000
     13          6           0        1.229279   -0.723861    0.000000
     14          6           0        2.489347   -1.411893    0.000000
     15          1           0        4.634018   -1.256556    0.000000
     16          1           0        4.634033    1.256485   -0.000000
     17          1           0        2.486862    2.512482    0.000000
     18          1           0       -0.000015    2.509553    0.000000
     19          1           0       -2.486992    2.512476   -0.000000
     20          1           0       -4.633997    1.256467   -0.000000
     21          1           0       -4.633907   -1.256670    0.000000
     22          1           0       -2.487009   -2.512449   -0.000001
     23          1           0       -0.000053   -2.509552    0.000000
     24          1           0        2.486753   -2.512488    0.000000
 ---------------------------------------------------------------------
 Rotational constants (GHZ):           2.1281110           0.4470978           0.3694744
 Leave Link  202 at Tue May 10 16:52:28 2022, MaxMem=  6442450944 cpu:               0.1 elap:               0.0
 (Enter /home1/apps/gaussian/16rA.03/g16/l601.exe)
 Copying SCF densities to generalized density rwf, IOpCl= 0 IROHF=0.

 **********************************************************************

            Population analysis using the SCF density.

 **********************************************************************

 Orbital symmetries:
       Occupied  (A) (A) (A) (A) (A) (A) (A) (A) (A) (A) (A) (A)
                 (A) (A) (A) (A) (A) (A) (A) (A) (A) (A) (A) (A)
                 (A) (A) (A) (A) (A) (A) (A) (A) (A) (A) (A) (A)
                 (A) (A) (A) (A) (A) (A) (A) (A) (A) (A) (A)
       Virtual   (A) (A) (A) (A) (A) (A) (A) (A) (A) (A) (A) (A)
                 (A) (A) (A) (A) (A) (A) (A) (A) (A) (A) (A) (A)
                 (A) (A) (A) (A) (A) (A) (A) (A) (A) (A) (A) (A)
                 (A) (A) (A) (A) (A) (A) (A) (A) (A) (A) (A) (A)
                 (A) (A) (A) (A) (A) (A) (A) (A) (A) (A) (A) (A)
                 (A) (A) (A) (A) (A) (A) (A) (A) (A) (A) (A) (A)
                 (A) (A) (A) (A) (A) (A) (A) (A) (A) (A) (A) (A)
                 (A) (A) (A) (A) (A) (A) (A) (A) (A) (A) (A) (A)
                 (A) (A) (A) (A) (A) (A) (A) (A) (A) (A) (A) (A)
                 (A) (A) (A) (A) (A) (A) (A) (A) (A) (A) (A) (A)
                 (A) (A) (A) (A) (A) (A) (A) (A) (A) (A) (A) (A)
                 (A) (A) (A) (A) (A) (A) (A) (A) (A) (A) (A) (A)
                 (A) (A) (A) (A) (A) (A) (A) (A) (A) (A) (A) (A)
                 (A) (A) (A) (A) (A) (A) (A) (A) (A) (A) (A) (A)
                 (A) (A) (A) (A) (A) (A) (A) (A) (A) (A) (A) (A)
                 (A) (A) (A) (A) (A) (A) (A) (A) (A) (A) (A) (A)
                 (A) (A) (A) (A) (A) (A) (A)
 The electronic state is 1-A.
 Alpha  occ. eigenvalues --  -10.00073 -10.00072 -10.00069 -10.00065  -9.99443
 Alpha  occ. eigenvalues --   -9.99439  -9.99438  -9.99437  -9.99437  -9.99420
 Alpha  occ. eigenvalues --   -9.99412  -9.99411  -9.99410  -9.99409  -0.88666
 Alpha  occ. eigenvalues --   -0.85717  -0.81103  -0.79314  -0.76270  -0.75164
 Alpha  occ. eigenvalues --   -0.71687  -0.66551  -0.63816  -0.62577  -0.61411
 Alpha  occ. eigenvalues --   -0.56516  -0.55533  -0.53781  -0.49712  -0.49361
 Alpha  occ. eigenvalues --   -0.48350  -0.48345  -0.45946  -0.44946  -0.44897
 Alpha  occ. eigenvalues --   -0.44422  -0.42638  -0.41441  -0.41388  -0.38563
 Alpha  occ. eigenvalues --   -0.37497  -0.36617  -0.35836  -0.35306  -0.31312
 Alpha  occ. eigenvalues --   -0.29552  -0.25008
 Alpha virt. eigenvalues --   -0.02855   0.01970   0.04003   0.07411   0.09746
 Alpha virt. eigenvalues --    0.11476   0.11802   0.12432   0.15384   0.15427
 Alpha virt. eigenvalues --    0.17736   0.18021   0.18077   0.19517   0.19722
 Alpha virt. eigenvalues --    0.23380   0.23389   0.26479   0.29569   0.29781
 Alpha virt. eigenvalues --    0.32198   0.32804   0.33226   0.33773   0.34064
 Alpha virt. eigenvalues --    0.35224   0.38237   0.39087   0.39939   0.41508
 Alpha virt. eigenvalues --    0.43118   0.43415   0.44014   0.46577   0.46720
 Alpha virt. eigenvalues --    0.47434   0.47730   0.48143   0.49484   0.49657
 Alpha virt. eigenvalues --    0.51620   0.51898   0.53038   0.53386   0.53435
 Alpha virt. eigenvalues --    0.53992   0.54632   0.55113   0.55802   0.58179
 Alpha virt. eigenvalues --    0.60411   0.60984   0.61000   0.61950   0.65985
 Alpha virt. eigenvalues --    0.66494   0.67015   0.67277   0.67923   0.68315
 Alpha virt. eigenvalues --    0.68483   0.69103   0.71241   0.71629   0.72153
 Alpha virt. eigenvalues --    0.72376   0.72619   0.73534   0.76134   0.76622
 Alpha virt. eigenvalues --    0.78139   0.79155   0.81178   0.81196   0.81277
 Alpha virt. eigenvalues --    0.81653   0.82337   0.82958   0.84484   0.89157
 Alpha virt. eigenvalues --    0.90504   0.94114   0.94606   0.95054   1.08298
 Alpha virt. eigenvalues --    1.09649   1.13781   1.16325   1.17079   1.18293
 Alpha virt. eigenvalues --    1.19769   1.21685   1.24949   1.25264   1.25447
 Alpha virt. eigenvalues --    1.25464   1.27000   1.28111   1.28779   1.30201
 Alpha virt. eigenvalues --    1.30838   1.30931   1.31672   1.32268   1.32443
 Alpha virt. eigenvalues --    1.34845   1.35279   1.41867   1.51628   1.52448
 Alpha virt. eigenvalues --    1.55269   1.64901   1.65085   1.65520   1.67357
 Alpha virt. eigenvalues --    1.67753   1.69421   1.71628   1.72454   1.72683
 Alpha virt. eigenvalues --    1.73590   1.74600   1.74756   1.75206   1.77070
 Alpha virt. eigenvalues --    1.77883   1.77928   1.78598   1.79772   1.80866
 Alpha virt. eigenvalues --    1.81243   1.83575   1.83674   1.88336   1.91769
 Alpha virt. eigenvalues --    1.91909   1.95488   1.95776   1.96900   1.97516
 Alpha virt. eigenvalues --    1.99068   2.00624   2.01877   2.03592   2.05394
 Alpha virt. eigenvalues --    2.06996   2.10689   2.10817   2.11208   2.12514
 Alpha virt. eigenvalues --    2.12558   2.14737   2.16177   2.17086   2.17232
 Alpha virt. eigenvalues --    2.18899   2.22411   2.22776   2.25137   2.29168
 Alpha virt. eigenvalues --    2.30463   2.30787   2.33631   2.36427   2.37574
 Alpha virt. eigenvalues --    2.39425   2.39805   2.41729   2.43128   2.51746
 Alpha virt. eigenvalues --    2.52755   2.55852   2.58233   2.58735   2.59667
 Alpha virt. eigenvalues --    2.64413   2.65556   2.65880   2.66811   2.67200
 Alpha virt. eigenvalues --    2.70832   2.71773   2.74148   2.75431   2.77030
 Alpha virt. eigenvalues --    2.81085   2.89054   2.89181   2.89458   2.92153
 Alpha virt. eigenvalues --    3.01185   3.05925   3.08075   3.10737   3.13502
 Alpha virt. eigenvalues --    3.25588   3.41319   3.59234   3.61363
          Condensed to atoms (all electrons):
               1          2          3          4          5          6
     1  C    5.121766   0.199252   0.097045  -0.126045  -0.001233   0.000168
     2  C    0.199252   5.121713   0.292551   0.090750   0.017845  -0.001226
     3  C    0.097045   0.292551   5.194736   0.269228  -0.118935   0.016354
     4  C   -0.126045   0.090750   0.269228   5.384710   0.289065   0.092845
     5  C   -0.001233   0.017845  -0.118935   0.289065   5.380517   0.289048
     6  C    0.000168  -0.001226   0.016354   0.092845   0.289048   5.384688
     7  C   -0.000003   0.000010  -0.000464   0.016365  -0.118967   0.269235
     8  C    0.000000  -0.000000   0.000010  -0.001226   0.017843   0.090803
     9  C   -0.000000   0.000000  -0.000003   0.000168  -0.001231  -0.126054
    10  C    0.000010  -0.000003   0.000067  -0.000836   0.016797   0.012956
    11  C   -0.001227   0.000168  -0.000836  -0.105268  -0.004395   0.100930
    12  C    0.017846  -0.001230   0.016785  -0.004454  -0.091294  -0.004436
    13  C    0.090769  -0.126070   0.012949   0.100852  -0.004431  -0.105288
    14  C    0.292476   0.097045  -0.130000   0.012960   0.016788  -0.000834
    15  H    0.436095  -0.074458   0.014315  -0.001004   0.000037  -0.000001
    16  H   -0.074462   0.436094  -0.068847   0.015053  -0.000463   0.000009
    17  H    0.014367  -0.075172   0.440500  -0.067339  -0.022971   0.000733
    18  H   -0.000015   0.000581  -0.019643  -0.073765   0.441409  -0.073749
    19  H   -0.000000  -0.000000  -0.000027   0.000733  -0.022962  -0.067371
    20  H    0.000000   0.000000  -0.000000   0.000009  -0.000464   0.015057
    21  H    0.000000   0.000000  -0.000000  -0.000001   0.000037  -0.001006
    22  H   -0.000000  -0.000000  -0.000000  -0.000026  -0.000270   0.015814
    23  H    0.000583  -0.000015  -0.000292   0.016380  -0.001804   0.016384
    24  H   -0.075168   0.014368  -0.001782   0.015817  -0.000269  -0.000026
               7          8          9         10         11         12
     1  C   -0.000003   0.000000  -0.000000   0.000010  -0.001227   0.017846
     2  C    0.000010  -0.000000   0.000000  -0.000003   0.000168  -0.001230
     3  C   -0.000464   0.000010  -0.000003   0.000067  -0.000836   0.016785
     4  C    0.016365  -0.001226   0.000168  -0.000836  -0.105268  -0.004454
     5  C   -0.118967   0.017843  -0.001231   0.016797  -0.004395  -0.091294
     6  C    0.269235   0.090803  -0.126054   0.012956   0.100930  -0.004436
     7  C    5.194897   0.292473   0.097044  -0.130021   0.012914   0.016787
     8  C    0.292473   5.121799   0.199212   0.097085  -0.126088  -0.001232
     9  C    0.097044   0.199212   5.121653   0.292561   0.090746   0.017837
    10  C   -0.130021   0.097085   0.292561   5.194986   0.269128  -0.118971
    11  C    0.012914  -0.126088   0.090746   0.269128   5.384818   0.289018
    12  C    0.016787  -0.001232   0.017837  -0.118971   0.289018   5.380562
    13  C   -0.000839   0.000168  -0.001227   0.016371   0.092915   0.288922
    14  C    0.000067  -0.000003   0.000010  -0.000465   0.016360  -0.118921
    15  H   -0.000000   0.000000   0.000000  -0.000000   0.000009  -0.000463
    16  H   -0.000000   0.000000   0.000000  -0.000000  -0.000001   0.000037
    17  H   -0.000027  -0.000000  -0.000000  -0.000000  -0.000026  -0.000269
    18  H   -0.019647   0.000581  -0.000015  -0.000293   0.016383  -0.001800
    19  H    0.440529  -0.075160   0.014373  -0.001784   0.015820  -0.000269
    20  H   -0.068834   0.436083  -0.074483   0.014315  -0.001003   0.000037
    21  H    0.014316  -0.074502   0.436118  -0.068836   0.015061  -0.000463
    22  H   -0.001781   0.014376  -0.075129   0.440501  -0.067389  -0.022956
    23  H   -0.000292  -0.000015   0.000582  -0.019646  -0.073753   0.441490
    24  H   -0.000000  -0.000000  -0.000000  -0.000027   0.000736  -0.022961
              13         14         15         16         17         18
     1  C    0.090769   0.292476   0.436095  -0.074462   0.014367  -0.000015
     2  C   -0.126070   0.097045  -0.074458   0.436094  -0.075172   0.000581
     3  C    0.012949  -0.130000   0.014315  -0.068847   0.440500  -0.019643
     4  C    0.100852   0.012960  -0.001004   0.015053  -0.067339  -0.073765
     5  C   -0.004431   0.016788   0.000037  -0.000463  -0.022971   0.441409
     6  C   -0.105288  -0.000834  -0.000001   0.000009   0.000733  -0.073749
     7  C   -0.000839   0.000067  -0.000000  -0.000000  -0.000027  -0.019647
     8  C    0.000168  -0.000003   0.000000   0.000000  -0.000000   0.000581
     9  C   -0.001227   0.000010   0.000000   0.000000  -0.000000  -0.000015
    10  C    0.016371  -0.000465  -0.000000  -0.000000  -0.000000  -0.000293
    11  C    0.092915   0.016360   0.000009  -0.000001  -0.000026   0.016383
    12  C    0.288922  -0.118921  -0.000463   0.000037  -0.000269  -0.001800
    13  C    5.385080   0.269158   0.015052  -0.001005   0.015827   0.016389
    14  C    0.269158   5.194808  -0.068853   0.014316  -0.001782  -0.000293
    15  H    0.015052  -0.068853   0.706461  -0.012428  -0.000295  -0.000001
    16  H   -0.001005   0.014316  -0.012428   0.706462  -0.013742  -0.000011
    17  H    0.015827  -0.001782  -0.000295  -0.013742   0.717817   0.006946
    18  H    0.016389  -0.000293  -0.000001  -0.000011   0.006946   0.727645
    19  H   -0.000026  -0.000000   0.000000  -0.000000   0.000001   0.006943
    20  H   -0.000001  -0.000000   0.000000  -0.000000  -0.000000  -0.000011
    21  H    0.000009  -0.000000  -0.000000   0.000000   0.000000  -0.000001
    22  H    0.000734  -0.000027  -0.000000   0.000000   0.000000   0.000010
    23  H   -0.073804  -0.019631  -0.000011  -0.000001   0.000010   0.000029
    24  H   -0.067362   0.440532  -0.013740  -0.000295   0.000031   0.000010
              19         20         21         22         23         24
     1  C   -0.000000   0.000000   0.000000  -0.000000   0.000583  -0.075168
     2  C   -0.000000   0.000000   0.000000  -0.000000  -0.000015   0.014368
     3  C   -0.000027  -0.000000  -0.000000  -0.000000  -0.000292  -0.001782
     4  C    0.000733   0.000009  -0.000001  -0.000026   0.016380   0.015817
     5  C   -0.022962  -0.000464   0.000037  -0.000270  -0.001804  -0.000269
     6  C   -0.067371   0.015057  -0.001006   0.015814   0.016384  -0.000026
     7  C    0.440529  -0.068834   0.014316  -0.001781  -0.000292  -0.000000
     8  C   -0.075160   0.436083  -0.074502   0.014376  -0.000015  -0.000000
     9  C    0.014373  -0.074483   0.436118  -0.075129   0.000582  -0.000000
    10  C   -0.001784   0.014315  -0.068836   0.440501  -0.019646  -0.000027
    11  C    0.015820  -0.001003   0.015061  -0.067389  -0.073753   0.000736
    12  C   -0.000269   0.000037  -0.000463  -0.022956   0.441490  -0.022961
    13  C   -0.000026  -0.000001   0.000009   0.000734  -0.073804  -0.067362
    14  C   -0.000000  -0.000000  -0.000000  -0.000027  -0.019631   0.440532
    15  H    0.000000   0.000000  -0.000000  -0.000000  -0.000011  -0.013740
    16  H   -0.000000  -0.000000   0.000000   0.000000  -0.000001  -0.000295
    17  H    0.000001  -0.000000   0.000000   0.000000   0.000010   0.000031
    18  H    0.006943  -0.000011  -0.000001   0.000010   0.000029   0.000010
    19  H    0.717815  -0.013744  -0.000295   0.000031   0.000010   0.000000
    20  H   -0.013744   0.706479  -0.012431  -0.000295  -0.000001   0.000000
    21  H   -0.000295  -0.012431   0.706484  -0.013749  -0.000011  -0.000000
    22  H    0.000031  -0.000295  -0.013749   0.717817   0.006941   0.000001
    23  H    0.000010  -0.000001  -0.000011   0.006941   0.727615   0.006936
    24  H    0.000000   0.000000  -0.000000   0.000001   0.006936   0.717797
 Mulliken charges:
               1
     1  C    0.007778
     2  C    0.007798
     3  C   -0.013711
     4  C    0.075027
     5  C   -0.079698
     6  C    0.074967
     7  C   -0.013762
     8  C    0.007796
     9  C    0.007839
    10  C   -0.013895
    11  C    0.074981
    12  C   -0.079600
    13  C    0.074856
    14  C   -0.013713
    15  H   -0.000715
    16  H   -0.000715
    17  H   -0.014608
    18  H   -0.027683
    19  H   -0.014619
    20  H   -0.000713
    21  H   -0.000730
    22  H   -0.014602
    23  H   -0.027682
    24  H   -0.014597
 Sum of Mulliken charges =  -0.00000
 Mulliken charges with hydrogens summed into heavy atoms:
               1
     1  C    0.007063
     2  C    0.007083
     3  C   -0.028319
     4  C    0.075027
     5  C   -0.107381
     6  C    0.074967
     7  C   -0.028381
     8  C    0.007083
     9  C    0.007108
    10  C   -0.028496
    11  C    0.074981
    12  C   -0.107282
    13  C    0.074856
    14  C   -0.028310
 Electronic spatial extent (au):  <R**2>=           2887.1083
 Charge=             -0.0000 electrons
 Dipole moment (field-independent basis, Debye):
    X=             -0.0001    Y=             -0.0003    Z=             -0.0000  Tot=              0.0003
 Quadrupole moment (field-independent basis, Debye-Ang):
   XX=            -70.8004   YY=            -71.5654   ZZ=            -87.0561
   XY=              0.0004   XZ=              0.0000   YZ=              0.0000
 Traceless Quadrupole moment (field-independent basis, Debye-Ang):
   XX=              5.6735   YY=              4.9086   ZZ=            -10.5821
   XY=              0.0004   XZ=              0.0000   YZ=              0.0000
 Octapole moment (field-independent basis, Debye-Ang**2):
  XXX=              0.0064  YYY=             -0.0031  ZZZ=             -0.0000  XYY=             -0.0052
  XXY=             -0.0038  XXZ=             -0.0000  XZZ=             -0.0005  YZZ=              0.0000
  YYZ=             -0.0000  XYZ=             -0.0000
 Hexadecapole moment (field-independent basis, Debye-Ang**3):
 XXXX=          -2870.0066 YYYY=           -707.1996 ZZZZ=            -95.1936 XXXY=              0.0200
 XXXZ=              0.0000 YYYX=             -0.0016 YYYZ=              0.0000 ZZZX=              0.0000
 ZZZY=              0.0000 XXYY=           -607.8870 XXZZ=           -603.3192 YYZZ=           -158.2011
 XXYZ=             -0.0000 YYXZ=              0.0000 ZZXY=              0.0002
 N-N= 7.617899739137D+02 E-N=-2.769725240929D+03  KE= 5.323544248309D+02
 No NMR shielding tensors so no spin-rotation constants.
 Leave Link  601 at Tue May 10 16:52:28 2022, MaxMem=  6442450944 cpu:               1.9 elap:               0.1
 (Enter /home1/apps/gaussian/16rA.03/g16/l9999.exe)

 Test job not archived.
 1\1\GINC-C482-092\FOpt\RLC-wHPBE\def2SVP\C14H10\TG878040\10-May-2022\0
 \\#P LC-wHPBE/Def2SVP iop(3/107=0156500000, 3/108=0156500000) opt scf(
 maxcyc=512)\\H10 C14\\0,1\C,-3.6714976202,0.7266135806,0.1526378815\C,
 -3.6670451622,-0.6924339166,0.3273410372\C,-2.4800245205,-1.3897617826
 ,0.3373640736\C,-1.2245382464,-0.7129242169,0.173551967\C,0.0044051633
 ,-1.3977257526,0.1793473325\C,1.2291791612,-0.7243634414,0.0179290552\
 C,2.488818904,-1.4128721753,0.0222169667\C,3.6714974116,-0.7264140701,
 -0.1381222379\C,3.6670158609,0.6924183145,-0.3127972806\C,2.4798245759
 ,1.3897062444,-0.3228044099\C,1.2244977224,0.7128706202,-0.1590023527\
 C,-0.0044786583,1.3977604499,-0.1648063189\C,-1.2290831603,0.724125244
 1,-0.0033652653\C,-2.4887704557,1.4128406354,-0.0076757277\H,-4.628630
 2135,1.2686129749,0.1470569394\H,-4.6207579189,-1.2255853643,0.4541217
 088\H,-2.4739735982,-2.4821207007,0.471680114\H,0.0078801418,-2.490744
 4836,0.3139095823\H,2.4898524089,-2.5051780731,0.1568471756\H,4.628587
 0984,-1.2685415814,-0.1325227817\H,4.6206101605,1.2257518642,-0.439592
 922\H,2.4740996626,2.4820699402,-0.4571422217\H,-0.0078339666,2.490726
 9255,-0.2993695561\H,-2.4896357507,2.5051717647,-0.1423197591\\Version
 =ES64L-G16RevA.03\State=1-A\HF=-538.6059763\RMSD=5.564e-09\RMSF=8.576e
 -05\Dipole=0.0000395,0.0001149,-0.0000168\Quadrupole=4.169573,3.477603
 ,-7.647176,-0.0914862,-0.7590751,-1.3931603\PG=C01 [X(C14H10)]\\@


 I do not feel obliged to believe that the same God who
 has endowed us with sense, reason, and intellect has
 intended us to forgo their use.
                   --Galileo Galilei
 Job cpu time:       0 days  0 hours 29 minutes 58.3 seconds.
 Elapsed time:       0 days  0 hours  1 minutes 54.0 seconds.
 File lengths (MBytes):  RWF=     44 Int=      0 D2E=      0 Chk=      6 Scr=      1
 Normal termination of Gaussian 16 at Tue May 10 16:52:28 2022.
