 Entering Gaussian System, Link 0=g16
 Input=/work/08504/tg878040/stampede2/d3tales/runfiles//06RACX/gaussian/gas_phase/opt/opt_groundState.com
 Output=/work/08504/tg878040/stampede2/d3tales/runfiles//06RACX/gaussian/gas_phase/opt/opt_groundState.log
 Initial command:
 /home1/apps/gaussian/16rA.03/g16/l1.exe "/tmp/Gau-21017.inp" -scrdir="/tmp/"
 Entering Link 1 = /home1/apps/gaussian/16rA.03/g16/l1.exe PID=     21018.
  
 Copyright (c) 1988,1990,1992,1993,1995,1998,2003,2009,2016,
            Gaussian, Inc.  All Rights Reserved.
  
 This is part of the Gaussian(R) 16 program.  It is based on
 the Gaussian(R) 09 system (copyright 2009, Gaussian, Inc.),
 the Gaussian(R) 03 system (copyright 2003, Gaussian, Inc.),
 the Gaussian(R) 98 system (copyright 1998, Gaussian, Inc.),
 the Gaussian(R) 94 system (copyright 1995, Gaussian, Inc.),
 the Gaussian 92(TM) system (copyright 1992, Gaussian, Inc.),
 the Gaussian 90(TM) system (copyright 1990, Gaussian, Inc.),
 the Gaussian 88(TM) system (copyright 1988, Gaussian, Inc.),
 the Gaussian 86(TM) system (copyright 1986, Carnegie Mellon
 University), and the Gaussian 82(TM) system (copyright 1983,
 Carnegie Mellon University). Gaussian is a federally registered
 trademark of Gaussian, Inc.
  
 This software contains proprietary and confidential information,
 including trade secrets, belonging to Gaussian, Inc.
  
 This software is provided under written license and may be
 used, copied, transmitted, or stored only in accord with that
 written license.
  
 The following legend is applicable only to US Government
 contracts under FAR:
  
                    RESTRICTED RIGHTS LEGEND
  
 Use, reproduction and disclosure by the US Government is
 subject to restrictions as set forth in subparagraphs (a)
 and (c) of the Commercial Computer Software - Restricted
 Rights clause in FAR 52.227-19.
  
 Gaussian, Inc.
 340 Quinnipiac St., Bldg. 40, Wallingford CT 06492
  
  
 ---------------------------------------------------------------
 Warning -- This program may not be used in any manner that
 competes with the business of Gaussian, Inc. or will provide
 assistance to any competitor of Gaussian, Inc.  The licensee
 of this program is prohibited from giving any competitor of
 Gaussian, Inc. access to this program.  By using this program,
 the user acknowledges that Gaussian, Inc. is engaged in the
 business of creating and licensing software in the field of
 computational chemistry and represents and warrants to the
 licensee that it is not a competitor of Gaussian, Inc. and that
 it will not use this program in any manner prohibited above.
 ---------------------------------------------------------------
  

 Cite this work as:
 Gaussian 16, Revision A.03,
 M. J. Frisch, G. W. Trucks, H. B. Schlegel, G. E. Scuseria, 
 M. A. Robb, J. R. Cheeseman, G. Scalmani, V. Barone, 
 G. A. Petersson, H. Nakatsuji, X. Li, M. Caricato, A. V. Marenich, 
 J. Bloino, B. G. Janesko, R. Gomperts, B. Mennucci, H. P. Hratchian, 
 J. V. Ortiz, A. F. Izmaylov, J. L. Sonnenberg, D. Williams-Young, 
 F. Ding, F. Lipparini, F. Egidi, J. Goings, B. Peng, A. Petrone, 
 T. Henderson, D. Ranasinghe, V. G. Zakrzewski, J. Gao, N. Rega, 
 G. Zheng, W. Liang, M. Hada, M. Ehara, K. Toyota, R. Fukuda, 
 J. Hasegawa, M. Ishida, T. Nakajima, Y. Honda, O. Kitao, H. Nakai, 
 T. Vreven, K. Throssell, J. A. Montgomery, Jr., J. E. Peralta, 
 F. Ogliaro, M. J. Bearpark, J. J. Heyd, E. N. Brothers, K. N. Kudin, 
 V. N. Staroverov, T. A. Keith, R. Kobayashi, J. Normand, 
 K. Raghavachari, A. P. Rendell, J. C. Burant, S. S. Iyengar, 
 J. Tomasi, M. Cossi, J. M. Millam, M. Klene, C. Adamo, R. Cammi, 
 J. W. Ochterski, R. L. Martin, K. Morokuma, O. Farkas, 
 J. B. Foresman, and D. J. Fox, Gaussian, Inc., Wallingford CT, 2016.
 
 ******************************************
 Gaussian 16:  ES64L-G16RevA.03 25-Dec-2016
                10-May-2022 
 ******************************************
 %chk=/work/08504/tg878040/stampede2/d3tales/runfiles//06RACX/gaussian/gas_phase/
 opt/opt_groundState.chk
 %mem=48GB
 %nprocshared=16
 Will use up to   16 processors via shared memory.
 ----------------------------------------------------------------------
 #P LC-wHPBE/Def2SVP iop(3/107=0319800000, 3/108=0319800000) opt scf(ma
 xcyc=512)
 ----------------------------------------------------------------------
 1/18=20,19=15,26=3,38=1/1,3;
 2/9=110,12=2,17=6,18=5,40=1/2;
 3/5=43,7=101,11=2,25=1,30=1,71=1,74=-71,107=319800000,108=319800000/1,2,3;
 4//1;
 5/5=2,7=512,38=5/2;
 6/7=2,8=2,9=2,10=2,28=1/1;
 7//1,2,3,16;
 1/18=20,19=15,26=3/3(2);
 2/9=110/2;
 99//99;
 2/9=110/2;
 3/5=43,7=101,11=2,25=1,30=1,71=1,74=-71,107=319800000,108=319800000/1,2,3;
 4/5=5,16=3,69=1/1;
 5/5=2,7=512,38=5/2;
 7//1,2,3,16;
 1/18=20,19=15,26=3/3(-5);
 2/9=110/2;
 6/7=2,8=2,9=2,10=2,19=2,28=1/1;
 99/9=1/99;
 Leave Link    1 at Tue May 10 16:41:47 2022, MaxMem=  6442450944 cpu:               0.5 elap:               0.0
 (Enter /home1/apps/gaussian/16rA.03/g16/l101.exe)
 -----------
 H5 C6 N1 O2
 -----------
 Symbolic Z-matrix:
 Charge =  0 Multiplicity = 1
 O                     2.94433  -1.04803  -0.19501 
 N                     2.28925  -0.00472  -0.05882 
 O                     2.96467   1.18577   0.06037 
 C                     0.86787  -0.03858  -0.02653 
 C                     0.1619    1.15058   0.12773 
 C                    -1.20807   1.19388   0.16758 
 C                    -1.89713   0.00871   0.0493 
 C                    -1.22228  -1.17938  -0.10404 
 C                     0.1667   -1.2008   -0.14186 
 H                     0.71823   2.06915   0.21884 
 H                    -1.75744   2.11206   0.28678 
 H                    -2.98187  -0.0335    0.07208 
 H                    -1.76842  -2.08751  -0.19421 
 H                     0.72225  -2.12763  -0.26221 
 
 ITRead=  0  0  0  0  0  0  0  0  0  0  0  0  0  0
 MicOpt= -1 -1 -1 -1 -1 -1 -1 -1 -1 -1 -1 -1 -1 -1
 NAtoms=     14 NQM=       14 NQMF=       0 NMMI=      0 NMMIF=      0
                NMic=       0 NMicF=      0.
                    Isotopes and Nuclear Properties:
 (Nuclear quadrupole moments (NQMom) in fm**2, nuclear magnetic moments (NMagM)
  in nuclear magnetons)

  Atom         1           2           3           4           5           6           7           8           9          10
 IAtWgt=          16          14          16          12          12          12          12          12          12           1
 AtmWgt=  15.9949146  14.0030740  15.9949146  12.0000000  12.0000000  12.0000000  12.0000000  12.0000000  12.0000000   1.0078250
 NucSpn=           0           2           0           0           0           0           0           0           0           1
 AtZEff=  -0.0000000  -0.0000000  -0.0000000  -0.0000000  -0.0000000  -0.0000000  -0.0000000  -0.0000000  -0.0000000  -0.0000000
 NQMom=    0.0000000   2.0440000   0.0000000   0.0000000   0.0000000   0.0000000   0.0000000   0.0000000   0.0000000   0.0000000
 NMagM=    0.0000000   0.4037610   0.0000000   0.0000000   0.0000000   0.0000000   0.0000000   0.0000000   0.0000000   2.7928460
 AtZNuc=   8.0000000   7.0000000   8.0000000   6.0000000   6.0000000   6.0000000   6.0000000   6.0000000   6.0000000   1.0000000

  Atom        11          12          13          14
 IAtWgt=           1           1           1           1
 AtmWgt=   1.0078250   1.0078250   1.0078250   1.0078250
 NucSpn=           1           1           1           1
 AtZEff=  -0.0000000  -0.0000000  -0.0000000  -0.0000000
 NQMom=    0.0000000   0.0000000   0.0000000   0.0000000
 NMagM=    2.7928460   2.7928460   2.7928460   2.7928460
 AtZNuc=   1.0000000   1.0000000   1.0000000   1.0000000
 Leave Link  101 at Tue May 10 16:41:47 2022, MaxMem=  6442450944 cpu:               5.7 elap:               0.4
 (Enter /home1/apps/gaussian/16rA.03/g16/l103.exe)

 GradGradGradGradGradGradGradGradGradGradGradGradGradGradGradGradGradGrad
 Berny optimization.
 Initialization pass.
                           ----------------------------
                           !    Initial Parameters    !
                           ! (Angstroms and Degrees)  !
 --------------------------                            --------------------------
 ! Name  Definition              Value          Derivative Info.                !
 --------------------------------------------------------------------------------
 ! R1    R(1,2)                  1.2394         estimate D2E/DX2                !
 ! R2    R(2,3)                  1.3739         estimate D2E/DX2                !
 ! R3    R(2,4)                  1.4222         estimate D2E/DX2                !
 ! R4    R(4,5)                  1.3915         estimate D2E/DX2                !
 ! R5    R(4,9)                  1.3622         estimate D2E/DX2                !
 ! R6    R(5,6)                  1.3712         estimate D2E/DX2                !
 ! R7    R(5,10)                 1.0778         estimate D2E/DX2                !
 ! R8    R(6,7)                  1.376          estimate D2E/DX2                !
 ! R9    R(6,11)                 1.0766         estimate D2E/DX2                !
 ! R10   R(7,8)                  1.3749         estimate D2E/DX2                !
 ! R11   R(7,12)                 1.0858         estimate D2E/DX2                !
 ! R12   R(8,9)                  1.3897         estimate D2E/DX2                !
 ! R13   R(8,13)                 1.0635         estimate D2E/DX2                !
 ! R14   R(9,14)                 1.0873         estimate D2E/DX2                !
 ! A1    A(1,2,3)              118.6264         estimate D2E/DX2                !
 ! A2    A(1,2,4)              120.7101         estimate D2E/DX2                !
 ! A3    A(3,2,4)              120.6634         estimate D2E/DX2                !
 ! A4    A(2,4,5)              119.2902         estimate D2E/DX2                !
 ! A5    A(2,4,9)              122.1968         estimate D2E/DX2                !
 ! A6    A(5,4,9)              118.513          estimate D2E/DX2                !
 ! A7    A(4,5,6)              122.485          estimate D2E/DX2                !
 ! A8    A(4,5,10)             118.4139         estimate D2E/DX2                !
 ! A9    A(6,5,10)             119.1011         estimate D2E/DX2                !
 ! A10   A(5,6,7)              118.0735         estimate D2E/DX2                !
 ! A11   A(5,6,11)             122.6805         estimate D2E/DX2                !
 ! A12   A(7,6,11)             119.246          estimate D2E/DX2                !
 ! A13   A(6,7,8)              120.5343         estimate D2E/DX2                !
 ! A14   A(6,7,12)             122.1374         estimate D2E/DX2                !
 ! A15   A(8,7,12)             117.3283         estimate D2E/DX2                !
 ! A16   A(7,8,9)              120.4601         estimate D2E/DX2                !
 ! A17   A(7,8,13)             119.6859         estimate D2E/DX2                !
 ! A18   A(9,8,13)             119.854          estimate D2E/DX2                !
 ! A19   A(4,9,8)              119.9341         estimate D2E/DX2                !
 ! A20   A(4,9,14)             118.2713         estimate D2E/DX2                !
 ! A21   A(8,9,14)             121.7946         estimate D2E/DX2                !
 ! D1    D(1,2,4,5)            179.9973         estimate D2E/DX2                !
 ! D2    D(1,2,4,9)             -0.0015         estimate D2E/DX2                !
 ! D3    D(3,2,4,5)             -0.0034         estimate D2E/DX2                !
 ! D4    D(3,2,4,9)            179.9978         estimate D2E/DX2                !
 ! D5    D(2,4,5,6)           -179.9987         estimate D2E/DX2                !
 ! D6    D(2,4,5,10)             0.0001         estimate D2E/DX2                !
 ! D7    D(9,4,5,6)              0.0001         estimate D2E/DX2                !
 ! D8    D(9,4,5,10)           179.9989         estimate D2E/DX2                !
 ! D9    D(2,4,9,8)            179.9988         estimate D2E/DX2                !
 ! D10   D(2,4,9,14)            -0.0004         estimate D2E/DX2                !
 ! D11   D(5,4,9,8)              0.0            estimate D2E/DX2                !
 ! D12   D(5,4,9,14)          -179.9992         estimate D2E/DX2                !
 ! D13   D(4,5,6,7)             -0.0001         estimate D2E/DX2                !
 ! D14   D(4,5,6,11)          -179.9995         estimate D2E/DX2                !
 ! D15   D(10,5,6,7)          -179.999          estimate D2E/DX2                !
 ! D16   D(10,5,6,11)            0.0017         estimate D2E/DX2                !
 ! D17   D(5,6,7,8)              0.0001         estimate D2E/DX2                !
 ! D18   D(5,6,7,12)          -179.999          estimate D2E/DX2                !
 ! D19   D(11,6,7,8)           179.9995         estimate D2E/DX2                !
 ! D20   D(11,6,7,12)            0.0004         estimate D2E/DX2                !
 ! D21   D(6,7,8,9)              0.0            estimate D2E/DX2                !
 ! D22   D(6,7,8,13)          -179.9993         estimate D2E/DX2                !
 ! D23   D(12,7,8,9)           179.9991         estimate D2E/DX2                !
 ! D24   D(12,7,8,13)           -0.0002         estimate D2E/DX2                !
 ! D25   D(7,8,9,4)             -0.0001         estimate D2E/DX2                !
 ! D26   D(7,8,9,14)           179.9991         estimate D2E/DX2                !
 ! D27   D(13,8,9,4)           179.9992         estimate D2E/DX2                !
 ! D28   D(13,8,9,14)           -0.0016         estimate D2E/DX2                !
 --------------------------------------------------------------------------------
 Trust Radius=3.00D-01 FncErr=1.00D-07 GrdErr=1.00D-06 EigMax=2.50D+02 EigMin=1.00D-04
 Number of steps in this run=     73 maximum allowed number of steps=    100.
 GradGradGradGradGradGradGradGradGradGradGradGradGradGradGradGradGradGrad

 Leave Link  103 at Tue May 10 16:41:47 2022, MaxMem=  6442450944 cpu:               0.2 elap:               0.0
 (Enter /home1/apps/gaussian/16rA.03/g16/l202.exe)
                          Input orientation:                          
 ---------------------------------------------------------------------
 Center     Atomic      Atomic             Coordinates (Angstroms)
 Number     Number       Type             X           Y           Z
 ---------------------------------------------------------------------
      1          8           0        2.944327   -1.048032   -0.195011
      2          7           0        2.289253   -0.004716   -0.058818
      3          8           0        2.964668    1.185772    0.060365
      4          6           0        0.867865   -0.038579   -0.026528
      5          6           0        0.161897    1.150584    0.127727
      6          6           0       -1.208073    1.193882    0.167578
      7          6           0       -1.897128    0.008706    0.049304
      8          6           0       -1.222276   -1.179378   -0.104036
      9          6           0        0.166699   -1.200804   -0.141862
     10          1           0        0.718232    2.069145    0.218844
     11          1           0       -1.757437    2.112063    0.286783
     12          1           0       -2.981865   -0.033504    0.072075
     13          1           0       -1.768416   -2.087507   -0.194211
     14          1           0        0.722254   -2.127629   -0.262209
 ---------------------------------------------------------------------
                    Distance matrix (angstroms):
                    1          2          3          4          5
     1  O    0.000000
     2  N    1.239427   0.000000
     3  O    2.248446   1.373918   0.000000
     4  C    2.314968   1.422158   2.429644   0.000000
     5  C    3.560897   2.427995   2.803801   1.391508   0.000000
     6  C    4.732872   3.703941   4.174126   2.422015   1.371233
     7  C    4.961459   4.187799   5.002266   2.766437   2.355763
     8  C    4.169665   3.703068   4.811597   2.382461   2.719995
     9  C    2.782334   2.437777   3.683106   1.362242   2.366797
    10  H    3.852735   2.616506   2.419078   2.127228   1.077759
    11  H    5.685500   4.579945   4.817422   3.408172   2.152576
    12  H    6.018335   5.272822   6.070257   3.850996   3.359822
    13  H    4.826019   4.563006   5.760317   3.343083   3.783515
    14  H    2.471367   2.646434   4.013864   2.107339   3.348542
                    6          7          8          9         10
     6  C    0.000000
     7  C    1.376019   0.000000
     8  C    2.388794   1.374948   0.000000
     9  C    2.778538   2.399758   1.389655   0.000000
    10  H    2.116451   3.333806   3.797726   3.335695   0.000000
    11  H    1.076600   2.121325   3.357487   3.855013   2.476973
    12  H    2.159152   1.085797   2.107177   3.364790   4.258332
    13  H    3.348491   2.114232   1.063531   2.129238   4.861254
    14  H    3.865658   3.394426   2.169192   1.087258   4.224256
                   11         12         13         14
    11  H    0.000000
    12  H    2.479674   0.000000
    13  H    4.227040   2.400478   0.000000
    14  H    4.942191   4.268208   2.491921   0.000000
 Stoichiometry    C6H5NO2
 Framework group  C1[X(C6H5NO2)]
 Deg. of freedom    36
 Full point group                 C1      NOp   1
 Largest Abelian subgroup         C1      NOp   1
 Largest concise Abelian subgroup C1      NOp   1
                         Standard orientation:                         
 ---------------------------------------------------------------------
 Center     Atomic      Atomic             Coordinates (Angstroms)
 Number     Number       Type             X           Y           Z
 ---------------------------------------------------------------------
      1          8           0        2.313036   -1.104753    0.000039
      2          7           0        1.673033   -0.043351    0.000004
      3          8           0        2.365891    1.143072   -0.000033
      4          6           0        0.250906   -0.052757   -0.000013
      5          6           0       -0.437879    1.156322    0.000006
      6          6           0       -1.807456    1.223684    0.000018
      7          6           0       -2.513879    0.042839    0.000008
      8          6           0       -1.856200   -1.164613   -0.000012
      9          6           0       -0.467295   -1.210292   -0.000021
     10          1           0        0.131920    2.071141    0.000031
     11          1           0       -2.343553    2.157315    0.000025
     12          1           0       -3.599418    0.019189   -0.000000
     13          1           0       -2.415650   -2.069109   -0.000030
     14          1           0        0.074868   -2.152730   -0.000022
 ---------------------------------------------------------------------
 Rotational constants (GHZ):           3.9992344           1.2624114           0.9595247
 Leave Link  202 at Tue May 10 16:41:47 2022, MaxMem=  6442450944 cpu:               0.1 elap:               0.0
 (Enter /home1/apps/gaussian/16rA.03/g16/l301.exe)
 Standard basis: def2SVP (5D, 7F)
 Ernie: Thresh=  0.10000D-02 Tol=  0.10000D-05 Strict=F.
 There are   160 symmetry adapted cartesian basis functions of A   symmetry.
 There are   151 symmetry adapted basis functions of A   symmetry.
   151 basis functions,   260 primitive gaussians,   160 cartesian basis functions
    32 alpha electrons       32 beta electrons
       nuclear repulsion energy       410.2401968696 Hartrees.
 IExCor=33909 DFT=T Ex+Corr=LC-wHPBE ExCW=0 ScaHFX=  1.000000
 ScaDFX=  1.000000  1.000000  1.000000  1.000000 ScalE2=  1.000000  1.000000
 IRadAn=      5 IRanWt=     -1 IRanGd=            0 ICorTp=0 IEmpDi=  4
 HFx  wShort=  0.000000 wLong=  0.319800 cFull=  0.000000 cShort=  0.000000 cLong=  1.000000
 DFx  wShort=  0.000000 wLong=  0.319800 cFull=  0.000000 cShort=  1.000000 cLong=  0.000000
 NAtoms=   14 NActive=   14 NUniq=   14 SFac= 1.00D+00 NAtFMM=   60 NAOKFM=F Big=F
 Integral buffers will be    131072 words long.
 Raffenetti 2 integral format.
 Two-electron integral symmetry is turned on.
 Leave Link  301 at Tue May 10 16:41:47 2022, MaxMem=  6442450944 cpu:               0.9 elap:               0.1
 (Enter /home1/apps/gaussian/16rA.03/g16/l302.exe)
 NPDir=0 NMtPBC=     1 NCelOv=     1 NCel=       1 NClECP=     1 NCelD=      1
         NCelK=      1 NCelE2=     1 NClLst=     1 CellRange=     0.0.
 One-electron integrals computed using PRISM.
 One-electron integral symmetry used in STVInt
   1 Symmetry operations used in ECPInt.
 ECPInt:  NShTT=    2415 NPrTT=    9043 LenC2=    2377 LenP2D=    7036.
 LDataN:  DoStor=T MaxTD1= 4 Len=   56
 NBasis=   151 RedAO= T EigKep=  2.45D-04  NBF=   151
 NBsUse=   151 1.00D-06 EigRej= -1.00D+00 NBFU=   151
 Precomputing XC quadrature grid using
 IXCGrd= 4 IRadAn=           5 IRanWt=          -1 IRanGd=           0 AccXCQ= 0.00D+00.
 Generated NRdTot=       0 NPtTot=           0 NUsed=           0 NTot=          32
 NSgBfM=   160   160   160   160   160 MxSgAt=    14 MxSgA2=    14.
 Leave Link  302 at Tue May 10 16:41:48 2022, MaxMem=  6442450944 cpu:               2.5 elap:               0.2
 (Enter /home1/apps/gaussian/16rA.03/g16/l303.exe)
 DipDrv:  MaxL=1.
 Leave Link  303 at Tue May 10 16:41:48 2022, MaxMem=  6442450944 cpu:               0.5 elap:               0.0
 (Enter /home1/apps/gaussian/16rA.03/g16/l401.exe)
 ExpMin= 1.22D-01 ExpMax= 2.27D+03 ExpMxC= 3.41D+02 IAcc=3 IRadAn=         5 AccDes= 0.00D+00
 Harris functional with IExCor=33909 and IRadAn=       5 diagonalized for initial guess.
 HarFok:  IExCor=33909 AccDes= 0.00D+00 IRadAn=         5 IDoV= 1 UseB2=F ITyADJ=14
 ICtDFT=  3500011 ScaDFX=  1.000000  1.000000  1.000000  1.000000
 FoFCou: FMM=F IPFlag=           0 FMFlag=      100000 FMFlg1=           0
         NFxFlg=           0 DoJE=T BraDBF=F KetDBF=T FulRan=T
         wScrn=  0.000000 ICntrl=       500 IOpCl=  0 I1Cent=   200000004 NGrid=           0
         NMat0=    1 NMatS0=      1 NMatT0=    0 NMatD0=    1 NMtDS0=    0 NMtDT0=    0
 Petite list used in FoFCou.
 Harris En= -425.584072568131    
 JPrj=0 DoOrth=F DoCkMO=F.
 Leave Link  401 at Tue May 10 16:41:48 2022, MaxMem=  6442450944 cpu:               6.3 elap:               0.4
 (Enter /home1/apps/gaussian/16rA.03/g16/l502.exe)
 Integral symmetry usage will be decided dynamically.
 Closed shell SCF:
 Using DIIS extrapolation, IDIIS=  1040.
 NGot=  6442450944 LenX=  6442395426 LenY=  6442369385
 Requested convergence on RMS density matrix=1.00D-08 within 512 cycles.
 Requested convergence on MAX density matrix=1.00D-06.
 Requested convergence on             energy=1.00D-06.
 No special actions if energy rises.
 Fock matrices will be formed incrementally for  20 cycles.
 Integral accuracy reduced to 1.0D-05 until final iterations.

 Cycle   1  Pass 0  IDiag  1:
 FoFJK:  IHMeth= 1 ICntrl=       0 DoSepK=T KAlg= 0 I1Cent=           0 FoldK=F
 IRaf=         1 NMat=       1 IRICut=       1 DoRegI=T DoRafI=F ISym2E= 0 IDoP0=0 IntGTp=1.
 FoFCou: FMM=F IPFlag=           0 FMFlag=      100000 FMFlg1=           0
         NFxFlg=           0 DoJE=T BraDBF=F KetDBF=F FulRan=T
         wScrn=  0.000000 ICntrl=       500 IOpCl=  0 I1Cent=           0 NGrid=           0
         NMat0=    1 NMatS0=      1 NMatT0=    0 NMatD0=    1 NMtDS0=    0 NMtDT0=    0
 Symmetry not used in FoFCou.
 E= -435.866195447174    
 DIIS: error= 4.42D-02 at cycle   1 NSaved=   1.
 NSaved= 1 IEnMin= 1 EnMin= -435.866195447174     IErMin= 1 ErrMin= 4.42D-02
 ErrMax= 4.42D-02  0.00D+00 EMaxC= 1.00D-01 BMatC= 2.55D-01 BMatP= 2.55D-01
 IDIUse=3 WtCom= 5.58D-01 WtEn= 4.42D-01
 Coeff-Com:  0.100D+01
 Coeff-En:   0.100D+01
 Coeff:      0.100D+01
 Gap=     0.284 Goal=   None    Shift=    0.000
 GapD=    0.284 DampG=1.000 DampE=0.500 DampFc=0.5000 IDamp=-1.
 Damping current iteration by 5.00D-01
 RMSDP=6.96D-03 MaxDP=2.30D-01              OVMax= 2.84D-01

 Cycle   2  Pass 0  IDiag  1:
 RMSU=  3.36D-03    CP:  9.70D-01
 E= -435.933438960397     Delta-E=       -0.067243513223 Rises=F Damp=T
 DIIS: error= 1.28D-02 at cycle   2 NSaved=   2.
 NSaved= 2 IEnMin= 2 EnMin= -435.933438960397     IErMin= 2 ErrMin= 1.28D-02
 ErrMax= 1.28D-02  0.00D+00 EMaxC= 1.00D-01 BMatC= 3.04D-02 BMatP= 2.55D-01
 IDIUse=3 WtCom= 8.72D-01 WtEn= 1.28D-01
 Coeff-Com:  0.210D+00 0.790D+00
 Coeff-En:   0.315D+00 0.685D+00
 Coeff:      0.224D+00 0.776D+00
 Gap=     0.309 Goal=   None    Shift=    0.000
 RMSDP=2.56D-03 MaxDP=5.09D-02 DE=-6.72D-02 OVMax= 1.64D-01

 Cycle   3  Pass 0  IDiag  1:
 RMSU=  2.32D-03    CP:  9.40D-01  1.15D+00
 E= -436.072271510176     Delta-E=       -0.138832549779 Rises=F Damp=F
 DIIS: error= 1.30D-02 at cycle   3 NSaved=   3.
 NSaved= 3 IEnMin= 3 EnMin= -436.072271510176     IErMin= 2 ErrMin= 1.28D-02
 ErrMax= 1.30D-02  0.00D+00 EMaxC= 1.00D-01 BMatC= 1.48D-02 BMatP= 3.04D-02
 IDIUse=3 WtCom= 8.70D-01 WtEn= 1.30D-01
 Coeff-Com:  0.914D-01 0.421D+00 0.488D+00
 Coeff-En:   0.000D+00 0.000D+00 0.100D+01
 Coeff:      0.796D-01 0.366D+00 0.554D+00
 Gap=     0.343 Goal=   None    Shift=    0.000
 RMSDP=9.23D-04 MaxDP=3.94D-02 DE=-1.39D-01 OVMax= 6.27D-02

 Cycle   4  Pass 0  IDiag  1:
 RMSU=  8.27D-04    CP:  9.41D-01  1.19D+00  8.33D-01
 E= -436.081221148553     Delta-E=       -0.008949638377 Rises=F Damp=F
 DIIS: error= 7.92D-03 at cycle   4 NSaved=   4.
 NSaved= 4 IEnMin= 4 EnMin= -436.081221148553     IErMin= 4 ErrMin= 7.92D-03
 ErrMax= 7.92D-03  0.00D+00 EMaxC= 1.00D-01 BMatC= 4.67D-03 BMatP= 1.48D-02
 IDIUse=3 WtCom= 9.21D-01 WtEn= 7.92D-02
 Coeff-Com:  0.261D-01 0.111D+00 0.356D+00 0.508D+00
 Coeff-En:   0.000D+00 0.000D+00 0.238D+00 0.762D+00
 Coeff:      0.240D-01 0.102D+00 0.347D+00 0.528D+00
 Gap=     0.332 Goal=   None    Shift=    0.000
 RMSDP=3.95D-04 MaxDP=1.66D-02 DE=-8.95D-03 OVMax= 2.00D-02

 Cycle   5  Pass 0  IDiag  1:
 RMSU=  2.38D-04    CP:  9.40D-01  1.18D+00  9.22D-01  7.18D-01
 E= -436.084506909540     Delta-E=       -0.003285760988 Rises=F Damp=F
 DIIS: error= 1.26D-03 at cycle   5 NSaved=   5.
 NSaved= 5 IEnMin= 5 EnMin= -436.084506909540     IErMin= 5 ErrMin= 1.26D-03
 ErrMax= 1.26D-03  0.00D+00 EMaxC= 1.00D-01 BMatC= 3.12D-04 BMatP= 4.67D-03
 IDIUse=3 WtCom= 9.87D-01 WtEn= 1.26D-02
 Coeff-Com:  0.165D-02-0.162D-01 0.998D-01 0.284D+00 0.630D+00
 Coeff-En:   0.000D+00 0.000D+00 0.000D+00 0.000D+00 0.100D+01
 Coeff:      0.163D-02-0.160D-01 0.986D-01 0.281D+00 0.635D+00
 Gap=     0.333 Goal=   None    Shift=    0.000
 RMSDP=1.44D-04 MaxDP=3.82D-03 DE=-3.29D-03 OVMax= 4.84D-03

 Cycle   6  Pass 0  IDiag  1:
 RMSU=  8.66D-05    CP:  9.38D-01  1.19D+00  9.48D-01  7.85D-01  7.75D-01
 E= -436.084758736268     Delta-E=       -0.000251826728 Rises=F Damp=F
 DIIS: error= 2.09D-04 at cycle   6 NSaved=   6.
 NSaved= 6 IEnMin= 6 EnMin= -436.084758736268     IErMin= 6 ErrMin= 2.09D-04
 ErrMax= 2.09D-04  0.00D+00 EMaxC= 1.00D-01 BMatC= 7.01D-06 BMatP= 3.12D-04
 IDIUse=3 WtCom= 9.98D-01 WtEn= 2.09D-03
 Coeff-Com:  0.383D-04-0.126D-01 0.102D-03 0.113D-01 0.102D+00 0.899D+00
 Coeff-En:   0.000D+00 0.000D+00 0.000D+00 0.000D+00 0.000D+00 0.100D+01
 Coeff:      0.382D-04-0.125D-01 0.102D-03 0.112D-01 0.101D+00 0.900D+00
 Gap=     0.333 Goal=   None    Shift=    0.000
 RMSDP=3.50D-05 MaxDP=7.70D-04 DE=-2.52D-04 OVMax= 1.31D-03

 Cycle   7  Pass 0  IDiag  1:
 RMSU=  2.00D-05    CP:  9.38D-01  1.19D+00  9.57D-01  7.90D-01  8.10D-01
                    CP:  1.14D+00
 E= -436.084768431608     Delta-E=       -0.000009695340 Rises=F Damp=F
 DIIS: error= 5.85D-05 at cycle   7 NSaved=   7.
 NSaved= 7 IEnMin= 7 EnMin= -436.084768431608     IErMin= 7 ErrMin= 5.85D-05
 ErrMax= 5.85D-05  0.00D+00 EMaxC= 1.00D-01 BMatC= 6.33D-07 BMatP= 7.01D-06
 IDIUse=1 WtCom= 1.00D+00 WtEn= 0.00D+00
 Coeff-Com:  0.299D-03-0.149D-02-0.583D-02-0.199D-01-0.370D-01 0.762D-01
 Coeff-Com:  0.988D+00
 Coeff:      0.299D-03-0.149D-02-0.583D-02-0.199D-01-0.370D-01 0.762D-01
 Coeff:      0.988D+00
 Gap=     0.334 Goal=   None    Shift=    0.000
 RMSDP=1.39D-05 MaxDP=2.91D-04 DE=-9.70D-06 OVMax= 4.75D-04

 Cycle   8  Pass 0  IDiag  1:
 RMSU=  6.66D-06    CP:  9.38D-01  1.19D+00  9.59D-01  7.90D-01  8.17D-01
                    CP:  1.25D+00  1.23D+00
 E= -436.084769739605     Delta-E=       -0.000001307996 Rises=F Damp=F
 DIIS: error= 1.92D-05 at cycle   8 NSaved=   8.
 NSaved= 8 IEnMin= 8 EnMin= -436.084769739605     IErMin= 8 ErrMin= 1.92D-05
 ErrMax= 1.92D-05  0.00D+00 EMaxC= 1.00D-01 BMatC= 7.06D-08 BMatP= 6.33D-07
 IDIUse=1 WtCom= 1.00D+00 WtEn= 0.00D+00
 Coeff-Com:  0.171D-03 0.926D-03-0.859D-03-0.561D-02-0.213D-01-0.847D-01
 Coeff-Com:  0.235D+00 0.877D+00
 Coeff:      0.171D-03 0.926D-03-0.859D-03-0.561D-02-0.213D-01-0.847D-01
 Coeff:      0.235D+00 0.877D+00
 Gap=     0.334 Goal=   None    Shift=    0.000
 RMSDP=4.33D-06 MaxDP=6.80D-05 DE=-1.31D-06 OVMax= 1.62D-04

 Initial convergence to 1.0D-05 achieved.  Increase integral accuracy.
 Cycle   9  Pass 1  IDiag  1:
 E= -436.084775738092     Delta-E=       -0.000005998488 Rises=F Damp=F
 DIIS: error= 1.72D-05 at cycle   1 NSaved=   1.
 NSaved= 1 IEnMin= 1 EnMin= -436.084775738092     IErMin= 1 ErrMin= 1.72D-05
 ErrMax= 1.72D-05  0.00D+00 EMaxC= 1.00D-01 BMatC= 2.22D-08 BMatP= 2.22D-08
 IDIUse=1 WtCom= 1.00D+00 WtEn= 0.00D+00
 Coeff-Com:  0.100D+01
 Coeff:      0.100D+01
 Gap=     0.334 Goal=   None    Shift=    0.000
 RMSDP=4.33D-06 MaxDP=6.80D-05 DE=-6.00D-06 OVMax= 8.55D-05

 Cycle  10  Pass 1  IDiag  1:
 RMSU=  1.61D-05    CP:  1.00D+00
 E= -436.084775759375     Delta-E=       -0.000000021283 Rises=F Damp=F
 DIIS: error= 6.94D-06 at cycle   2 NSaved=   2.
 NSaved= 2 IEnMin= 2 EnMin= -436.084775759375     IErMin= 2 ErrMin= 6.94D-06
 ErrMax= 6.94D-06  0.00D+00 EMaxC= 1.00D-01 BMatC= 5.39D-09 BMatP= 2.22D-08
 IDIUse=1 WtCom= 1.00D+00 WtEn= 0.00D+00
 Coeff-Com:  0.243D+00 0.757D+00
 Coeff:      0.243D+00 0.757D+00
 Gap=     0.334 Goal=   None    Shift=    0.000
 RMSDP=1.41D-06 MaxDP=2.33D-05 DE=-2.13D-08 OVMax= 3.63D-05

 Cycle  11  Pass 1  IDiag  1:
 RMSU=  8.44D-07    CP:  1.00D+00  1.07D+00
 E= -436.084775764159     Delta-E=       -0.000000004784 Rises=F Damp=F
 DIIS: error= 4.99D-06 at cycle   3 NSaved=   3.
 NSaved= 3 IEnMin= 3 EnMin= -436.084775764159     IErMin= 3 ErrMin= 4.99D-06
 ErrMax= 4.99D-06  0.00D+00 EMaxC= 1.00D-01 BMatC= 1.98D-09 BMatP= 5.39D-09
 IDIUse=1 WtCom= 1.00D+00 WtEn= 0.00D+00
 Coeff-Com: -0.368D-01 0.361D+00 0.675D+00
 Coeff:     -0.368D-01 0.361D+00 0.675D+00
 Gap=     0.334 Goal=   None    Shift=    0.000
 RMSDP=6.22D-07 MaxDP=1.04D-05 DE=-4.78D-09 OVMax= 2.71D-05

 Cycle  12  Pass 1  IDiag  1:
 RMSU=  3.23D-07    CP:  1.00D+00  1.10D+00  8.65D-01
 E= -436.084775766555     Delta-E=       -0.000000002395 Rises=F Damp=F
 DIIS: error= 1.54D-06 at cycle   4 NSaved=   4.
 NSaved= 4 IEnMin= 4 EnMin= -436.084775766555     IErMin= 4 ErrMin= 1.54D-06
 ErrMax= 1.54D-06  0.00D+00 EMaxC= 1.00D-01 BMatC= 3.31D-10 BMatP= 1.98D-09
 IDIUse=1 WtCom= 1.00D+00 WtEn= 0.00D+00
 Coeff-Com: -0.343D-01 0.147D+00 0.376D+00 0.512D+00
 Coeff:     -0.343D-01 0.147D+00 0.376D+00 0.512D+00
 Gap=     0.334 Goal=   None    Shift=    0.000
 RMSDP=1.45D-07 MaxDP=4.68D-06 DE=-2.40D-09 OVMax= 8.08D-06

 Cycle  13  Pass 1  IDiag  1:
 RMSU=  1.23D-07    CP:  1.00D+00  1.10D+00  9.23D-01  1.08D+00
 E= -436.084775766896     Delta-E=       -0.000000000341 Rises=F Damp=F
 DIIS: error= 9.18D-07 at cycle   5 NSaved=   5.
 NSaved= 5 IEnMin= 5 EnMin= -436.084775766896     IErMin= 5 ErrMin= 9.18D-07
 ErrMax= 9.18D-07  0.00D+00 EMaxC= 1.00D-01 BMatC= 5.66D-11 BMatP= 3.31D-10
 IDIUse=1 WtCom= 1.00D+00 WtEn= 0.00D+00
 Coeff-Com:  0.191D-02-0.113D+00-0.133D+00 0.239D+00 0.100D+01
 Coeff:      0.191D-02-0.113D+00-0.133D+00 0.239D+00 0.100D+01
 Gap=     0.334 Goal=   None    Shift=    0.000
 RMSDP=1.48D-07 MaxDP=3.85D-06 DE=-3.41D-10 OVMax= 1.16D-05

 Cycle  14  Pass 1  IDiag  1:
 RMSU=  7.30D-08    CP:  1.00D+00  1.10D+00  1.00D+00  1.40D+00  1.21D+00
 E= -436.084775767066     Delta-E=       -0.000000000170 Rises=F Damp=F
 DIIS: error= 4.25D-07 at cycle   6 NSaved=   6.
 NSaved= 6 IEnMin= 6 EnMin= -436.084775767066     IErMin= 6 ErrMin= 4.25D-07
 ErrMax= 4.25D-07  0.00D+00 EMaxC= 1.00D-01 BMatC= 2.65D-11 BMatP= 5.66D-11
 IDIUse=1 WtCom= 1.00D+00 WtEn= 0.00D+00
 Coeff-Com:  0.691D-02-0.103D+00-0.156D+00 0.585D-01 0.664D+00 0.529D+00
 Coeff:      0.691D-02-0.103D+00-0.156D+00 0.585D-01 0.664D+00 0.529D+00
 Gap=     0.334 Goal=   None    Shift=    0.000
 RMSDP=5.24D-08 MaxDP=1.07D-06 DE=-1.70D-10 OVMax= 2.64D-06

 Cycle  15  Pass 1  IDiag  1:
 RMSU=  2.90D-08    CP:  1.00D+00  1.10D+00  1.02D+00  1.49D+00  1.43D+00
                    CP:  1.08D+00
 E= -436.084775767096     Delta-E=       -0.000000000030 Rises=F Damp=F
 DIIS: error= 9.82D-08 at cycle   7 NSaved=   7.
 NSaved= 7 IEnMin= 7 EnMin= -436.084775767096     IErMin= 7 ErrMin= 9.82D-08
 ErrMax= 9.82D-08  0.00D+00 EMaxC= 1.00D-01 BMatC= 1.41D-12 BMatP= 2.65D-11
 IDIUse=1 WtCom= 1.00D+00 WtEn= 0.00D+00
 Coeff-Com:  0.227D-02-0.226D-01-0.405D-01-0.146D-01 0.128D+00 0.209D+00
 Coeff-Com:  0.738D+00
 Coeff:      0.227D-02-0.226D-01-0.405D-01-0.146D-01 0.128D+00 0.209D+00
 Coeff:      0.738D+00
 Gap=     0.334 Goal=   None    Shift=    0.000
 RMSDP=1.95D-08 MaxDP=3.61D-07 DE=-3.02D-11 OVMax= 1.12D-06

 Cycle  16  Pass 1  IDiag  1:
 RMSU=  8.92D-09    CP:  1.00D+00  1.10D+00  1.02D+00  1.50D+00  1.47D+00
                    CP:  1.20D+00  1.11D+00
 E= -436.084775767102     Delta-E=       -0.000000000005 Rises=F Damp=F
 DIIS: error= 5.78D-08 at cycle   8 NSaved=   8.
 NSaved= 8 IEnMin= 8 EnMin= -436.084775767102     IErMin= 8 ErrMin= 5.78D-08
 ErrMax= 5.78D-08  0.00D+00 EMaxC= 1.00D-01 BMatC= 3.33D-13 BMatP= 1.41D-12
 IDIUse=1 WtCom= 1.00D+00 WtEn= 0.00D+00
 Coeff-Com: -0.128D-02 0.238D-01 0.319D-01-0.281D-01-0.152D+00-0.739D-01
 Coeff-Com:  0.260D+00 0.939D+00
 Coeff:     -0.128D-02 0.238D-01 0.319D-01-0.281D-01-0.152D+00-0.739D-01
 Coeff:      0.260D+00 0.939D+00
 Gap=     0.334 Goal=   None    Shift=    0.000
 RMSDP=1.37D-08 MaxDP=2.53D-07 DE=-5.46D-12 OVMax= 7.65D-07

 Cycle  17  Pass 1  IDiag  1:
 RMSU=  5.83D-09    CP:  1.00D+00  1.10D+00  1.02D+00  1.50D+00  1.50D+00
                    CP:  1.28D+00  1.25D+00  1.41D+00
 E= -436.084775767100     Delta-E=        0.000000000001 Rises=F Damp=F
 DIIS: error= 2.28D-08 at cycle   9 NSaved=   9.
 NSaved= 9 IEnMin= 8 EnMin= -436.084775767102     IErMin= 9 ErrMin= 2.28D-08
 ErrMax= 2.28D-08  0.00D+00 EMaxC= 1.00D-01 BMatC= 2.58D-14 BMatP= 3.33D-13
 IDIUse=1 WtCom= 1.00D+00 WtEn= 0.00D+00
 Coeff-Com: -0.283D-03 0.216D-02 0.367D-02 0.312D-02-0.908D-02-0.168D-01
 Coeff-Com: -0.138D+00-0.118D+00 0.127D+01
 Coeff:     -0.283D-03 0.216D-02 0.367D-02 0.312D-02-0.908D-02-0.168D-01
 Coeff:     -0.138D+00-0.118D+00 0.127D+01
 Gap=     0.334 Goal=   None    Shift=    0.000
 RMSDP=5.45D-09 MaxDP=9.79D-08 DE= 1.36D-12 OVMax= 3.94D-07

 SCF Done:  E(RLC-wHPBE) =  -436.084775767     A.U. after   17 cycles
            NFock= 17  Conv=0.55D-08     -V/T= 2.0091
 KE= 4.321342962705D+02 PE=-1.837272962330D+03 EE= 5.588136934233D+02
 Leave Link  502 at Tue May 10 16:41:57 2022, MaxMem=  6442450944 cpu:             141.0 elap:               8.9
 (Enter /home1/apps/gaussian/16rA.03/g16/l601.exe)
 Copying SCF densities to generalized density rwf, IOpCl= 0 IROHF=0.

 **********************************************************************

            Population analysis using the SCF density.

 **********************************************************************

 Orbital symmetries:
       Occupied  (A) (A) (A) (A) (A) (A) (A) (A) (A) (A) (A) (A)
                 (A) (A) (A) (A) (A) (A) (A) (A) (A) (A) (A) (A)
                 (A) (A) (A) (A) (A) (A) (A) (A)
       Virtual   (A) (A) (A) (A) (A) (A) (A) (A) (A) (A) (A) (A)
                 (A) (A) (A) (A) (A) (A) (A) (A) (A) (A) (A) (A)
                 (A) (A) (A) (A) (A) (A) (A) (A) (A) (A) (A) (A)
                 (A) (A) (A) (A) (A) (A) (A) (A) (A) (A) (A) (A)
                 (A) (A) (A) (A) (A) (A) (A) (A) (A) (A) (A) (A)
                 (A) (A) (A) (A) (A) (A) (A) (A) (A) (A) (A) (A)
                 (A) (A) (A) (A) (A) (A) (A) (A) (A) (A) (A) (A)
                 (A) (A) (A) (A) (A) (A) (A) (A) (A) (A) (A) (A)
                 (A) (A) (A) (A) (A) (A) (A) (A) (A) (A) (A) (A)
                 (A) (A) (A) (A) (A) (A) (A) (A) (A) (A) (A)
 The electronic state is 1-A.
 Alpha  occ. eigenvalues --  -18.97816 -18.94910 -14.40354 -10.15022 -10.11709
 Alpha  occ. eigenvalues --  -10.11232 -10.11143 -10.10735 -10.10731  -1.27606
 Alpha  occ. eigenvalues --   -1.07745  -1.01325  -0.93202  -0.88639  -0.82163
 Alpha  occ. eigenvalues --   -0.74861  -0.70982  -0.66513  -0.63216  -0.61880
 Alpha  occ. eigenvalues --   -0.61545  -0.57607  -0.57230  -0.55438  -0.52005
 Alpha  occ. eigenvalues --   -0.49178  -0.47099  -0.41251  -0.39698  -0.38933
 Alpha  occ. eigenvalues --   -0.37991  -0.37349
 Alpha virt. eigenvalues --   -0.03984   0.03972   0.07272   0.13139   0.17335
 Alpha virt. eigenvalues --    0.18402   0.22364   0.22677   0.23172   0.24189
 Alpha virt. eigenvalues --    0.28432   0.32312   0.35167   0.36205   0.37319
 Alpha virt. eigenvalues --    0.41923   0.42713   0.47680   0.47904   0.52022
 Alpha virt. eigenvalues --    0.53294   0.53490   0.56243   0.57766   0.58335
 Alpha virt. eigenvalues --    0.60207   0.60501   0.66278   0.67082   0.67978
 Alpha virt. eigenvalues --    0.71300   0.71671   0.74472   0.75922   0.76175
 Alpha virt. eigenvalues --    0.79482   0.81007   0.81044   0.82405   0.84677
 Alpha virt. eigenvalues --    0.87572   0.88491   0.92385   0.97365   1.01588
 Alpha virt. eigenvalues --    1.02639   1.06918   1.07193   1.11066   1.12808
 Alpha virt. eigenvalues --    1.14792   1.23733   1.24132   1.26350   1.29629
 Alpha virt. eigenvalues --    1.30679   1.33471   1.34302   1.36078   1.36856
 Alpha virt. eigenvalues --    1.44539   1.46628   1.46825   1.54228   1.57811
 Alpha virt. eigenvalues --    1.72940   1.74030   1.75579   1.80673   1.80806
 Alpha virt. eigenvalues --    1.82465   1.83864   1.84608   1.85468   1.87282
 Alpha virt. eigenvalues --    1.88407   1.96356   1.99560   2.00770   2.05221
 Alpha virt. eigenvalues --    2.07595   2.08546   2.15721   2.16658   2.19409
 Alpha virt. eigenvalues --    2.20771   2.24132   2.26295   2.35120   2.36124
 Alpha virt. eigenvalues --    2.37623   2.39341   2.41888   2.44396   2.50555
 Alpha virt. eigenvalues --    2.62838   2.65224   2.68590   2.69177   2.71987
 Alpha virt. eigenvalues --    2.72625   2.72792   2.76567   2.78208   2.79723
 Alpha virt. eigenvalues --    2.82227   2.83052   2.95761   2.97587   3.03694
 Alpha virt. eigenvalues --    3.10251   3.12946   3.21768   3.24190   3.35549
 Alpha virt. eigenvalues --    3.39716   3.64847   3.77958   3.84089
          Condensed to atoms (all electrons):
               1          2          3          4          5          6
     1  O    8.013160   0.318421  -0.085634  -0.091703   0.006295  -0.000008
     2  N    0.318421   6.069122   0.294098   0.245815  -0.055785   0.007228
     3  O   -0.085634   0.294098   8.100543  -0.089143   0.018172   0.002079
     4  C   -0.091703   0.245815  -0.089143   5.332031   0.212092   0.121839
     5  C    0.006295  -0.055785   0.018172   0.212092   5.234014   0.203983
     6  C   -0.000008   0.007228   0.002079   0.121839   0.203983   5.141261
     7  C   -0.000007  -0.000854  -0.000019  -0.177600   0.119259   0.216835
     8  C    0.001643   0.006949   0.000011   0.124620  -0.163903   0.111150
     9  C    0.011765  -0.056258   0.002176   0.245009   0.053347  -0.159276
    10  H    0.000681  -0.014933   0.027467  -0.064484   0.440709  -0.058638
    11  H    0.000001  -0.000063  -0.000023   0.015403  -0.071649   0.465732
    12  H    0.000000   0.000011   0.000000  -0.001825   0.014221  -0.071402
    13  H   -0.000015  -0.000097   0.000001   0.016278  -0.002386   0.015626
    14  H    0.022785  -0.016500   0.000373  -0.057875   0.017668  -0.002682
               7          8          9         10         11         12
     1  O   -0.000007   0.001643   0.011765   0.000681   0.000001   0.000000
     2  N   -0.000854   0.006949  -0.056258  -0.014933  -0.000063   0.000011
     3  O   -0.000019   0.000011   0.002176   0.027467  -0.000023   0.000000
     4  C   -0.177600   0.124620   0.245009  -0.064484   0.015403  -0.001825
     5  C    0.119259  -0.163903   0.053347   0.440709  -0.071649   0.014221
     6  C    0.216835   0.111150  -0.159276  -0.058638   0.465732  -0.071402
     7  C    5.103644   0.273381   0.109957   0.014537  -0.075546   0.450623
     8  C    0.273381   5.082162   0.216326  -0.002692   0.014717  -0.065101
     9  C    0.109957   0.216326   5.221342   0.016972  -0.002503   0.014860
    10  H    0.014537  -0.002692   0.016972   0.619081  -0.012085  -0.000191
    11  H   -0.075546   0.014717  -0.002503  -0.012085   0.656122  -0.011696
    12  H    0.450623  -0.065101   0.014860  -0.000191  -0.011696   0.659748
    13  H   -0.071598   0.461325  -0.072456   0.000017  -0.000241  -0.014092
    14  H    0.013153  -0.059665   0.435603  -0.000301   0.000020  -0.000154
              13         14
     1  O   -0.000015   0.022785
     2  N   -0.000097  -0.016500
     3  O    0.000001   0.000373
     4  C    0.016278  -0.057875
     5  C   -0.002386   0.017668
     6  C    0.015626  -0.002682
     7  C   -0.071598   0.013153
     8  C    0.461325  -0.059665
     9  C   -0.072456   0.435603
    10  H    0.000017  -0.000301
    11  H   -0.000241   0.000020
    12  H   -0.014092  -0.000154
    13  H    0.664568  -0.011394
    14  H   -0.011394   0.625679
 Mulliken charges:
               1
     1  O   -0.197382
     2  N    0.202845
     3  O   -0.270101
     4  C    0.169542
     5  C   -0.026037
     6  C    0.006271
     7  C    0.024235
     8  C   -0.000925
     9  C   -0.036866
    10  H    0.033859
    11  H    0.021811
    12  H    0.024996
    13  H    0.014463
    14  H    0.033291
 Sum of Mulliken charges =  -0.00000
 Mulliken charges with hydrogens summed into heavy atoms:
               1
     1  O   -0.197382
     2  N    0.202845
     3  O   -0.270101
     4  C    0.169542
     5  C    0.007822
     6  C    0.028081
     7  C    0.049231
     8  C    0.013537
     9  C   -0.003575
 Electronic spatial extent (au):  <R**2>=           1131.2203
 Charge=             -0.0000 electrons
 Dipole moment (field-independent basis, Debye):
    X=             -5.0593    Y=             -0.4908    Z=              0.0000  Tot=              5.0830
 Quadrupole moment (field-independent basis, Debye-Ang):
   XX=            -54.9381   YY=            -47.8391   ZZ=            -51.9475
   XY=             -1.2534   XZ=              0.0000   YZ=              0.0003
 Traceless Quadrupole moment (field-independent basis, Debye-Ang):
   XX=             -3.3632   YY=              3.7358   ZZ=             -0.3726
   XY=             -1.2534   XZ=              0.0000   YZ=              0.0003
 Octapole moment (field-independent basis, Debye-Ang**2):
  XXX=            -30.6693  YYY=             -0.6450  ZZZ=              0.0001  XYY=             -7.9911
  XXY=             -2.4287  XXZ=             -0.0001  XZZ=             12.4586  YZZ=             -0.3156
  YYZ=              0.0000  XYZ=              0.0002
 Hexadecapole moment (field-independent basis, Debye-Ang**3):
 XXXX=          -1002.2261 YYYY=           -343.5403 ZZZZ=            -50.1073 XXXY=             -6.0818
 XXXZ=              0.0003 YYYX=             -2.6765 YYYZ=              0.0006 ZZZX=              0.0002
 ZZZY=             -0.0004 XXYY=           -230.2078 XXZZ=           -179.7400 YYZZ=            -74.5040
 XXYZ=              0.0010 YYXZ=              0.0001 ZZXY=             -0.6701
 N-N= 4.102401968696D+02 E-N=-1.837272961983D+03  KE= 4.321342962705D+02
 No NMR shielding tensors so no spin-rotation constants.
 Leave Link  601 at Tue May 10 16:41:57 2022, MaxMem=  6442450944 cpu:               2.1 elap:               0.2
 (Enter /home1/apps/gaussian/16rA.03/g16/l701.exe)
 ... and contract with generalized density number  0.
 Compute integral first derivatives.
   1 Symmetry operations used in ECPInt.
 ECPInt:  NShTT=    2415 NPrTT=    9043 LenC2=    2377 LenP2D=    7036.
 LDataN:  DoStor=T MaxTD1= 5 Len=  102
 Leave Link  701 at Tue May 10 16:41:57 2022, MaxMem=  6442450944 cpu:               2.2 elap:               0.2
 (Enter /home1/apps/gaussian/16rA.03/g16/l702.exe)
 L702 exits ... SP integral derivatives will be done elsewhere.
 Leave Link  702 at Tue May 10 16:41:57 2022, MaxMem=  6442450944 cpu:               0.3 elap:               0.0
 (Enter /home1/apps/gaussian/16rA.03/g16/l703.exe)
 Integral derivatives from FoFJK, PRISM(SPDF).
 Compute integral first derivatives, UseDBF=F ICtDFT=           0.
 Calling FoFJK, ICntrl=      2127 FMM=F ISym2X=0 I1Cent= 0 IOpClX= 0 NMat=1 NMatS=1 NMatT=0.
 FoFJK:  IHMeth= 1 ICntrl=    2127 DoSepK=T KAlg= 0 I1Cent=           0 FoldK=F
 IRaf=         1 NMat=       1 IRICut=       1 DoRegI=T DoRafI=F ISym2E= 0 IDoP0=0 IntGTp=1.
 FoFCou: FMM=F IPFlag=           0 FMFlag=      100000 FMFlg1=         800
         NFxFlg=           0 DoJE=F BraDBF=F KetDBF=F FulRan=T
         wScrn=  0.000000 ICntrl=      2527 IOpCl=  0 I1Cent=           0 NGrid=           0
         NMat0=    1 NMatS0=      1 NMatT0=    0 NMatD0=    1 NMtDS0=    0 NMtDT0=    0
 Symmetry not used in FoFCou.
 Leave Link  703 at Tue May 10 16:41:59 2022, MaxMem=  6442450944 cpu:              23.3 elap:               1.5
 (Enter /home1/apps/gaussian/16rA.03/g16/l716.exe)
 Dipole        =-1.99047383D+00-1.93084262D-01 2.37502836D-06
 ***** Axes restored to original set *****
 -------------------------------------------------------------------
 Center     Atomic                   Forces (Hartrees/Bohr)
 Number     Number              X              Y              Z
 -------------------------------------------------------------------
      1        8          -0.038249180    0.036215617    0.005122649
      2        7           0.125358015    0.060194744    0.003702746
      3        8          -0.077922715   -0.104181730   -0.009950488
      4        6          -0.014658562    0.029205063    0.003721264
      5        6           0.015176034    0.017795230    0.001654253
      6        6          -0.001157339   -0.005513926   -0.000603363
      7        6          -0.014761023   -0.008891131   -0.000644424
      8        6           0.016540418    0.004711289    0.000117929
      9        6          -0.000971033   -0.029113245   -0.003310520
     10        1           0.009514724    0.008599389    0.000742368
     11        1          -0.002086307    0.013310849    0.001579011
     12        1          -0.007422017    0.003953804    0.000642764
     13        1          -0.010613607   -0.020726164   -0.002104584
     14        1           0.001252592   -0.005559789   -0.000669606
 -------------------------------------------------------------------
 Cartesian Forces:  Max     0.125358015 RMS     0.032105941
 Leave Link  716 at Tue May 10 16:41:59 2022, MaxMem=  6442450944 cpu:               0.4 elap:               0.0
 (Enter /home1/apps/gaussian/16rA.03/g16/l103.exe)

 GradGradGradGradGradGradGradGradGradGradGradGradGradGradGradGradGradGrad
 Berny optimization.
 FormGI is forming the generalized inverse of G from B-inverse, IUseBI=4.
 Internal  Forces:  Max     0.129443721 RMS     0.019751114
 Search for a local minimum.
 Step number   1 out of a maximum of   73
 All quantities printed in internal units (Hartrees-Bohrs-Radians)
 RMS Force = .19751D-01 SwitMx=.10000D-02 MixMth= 1
 Mixed Optimization -- RFO/linear search
 Second derivative matrix not updated -- first step.
 ITU=  0
     Eigenvalues ---    0.01399   0.01399   0.02078   0.02293   0.02310
     Eigenvalues ---    0.02331   0.02387   0.02412   0.02415   0.02442
     Eigenvalues ---    0.02479   0.16000   0.16000   0.16000   0.16000
     Eigenvalues ---    0.16000   0.22000   0.22000   0.23476   0.25000
     Eigenvalues ---    0.25000   0.25000   0.35131   0.35303   0.36266
     Eigenvalues ---    0.36408   0.38060   0.42137   0.43461   0.44901
     Eigenvalues ---    0.48146   0.49155   0.50231   0.50276   0.51802
     Eigenvalues ---    0.87269
 RFO step:  Lambda=-4.66353951D-02 EMin= 1.39867338D-02
 Linear search not attempted -- first point.
 Maximum step size (   0.300) exceeded in Quadratic search.
    -- Step size scaled by   0.968
 Iteration  1 RMS(Cart)=  0.04149737 RMS(Int)=  0.00398854
 Iteration  2 RMS(Cart)=  0.00385970 RMS(Int)=  0.00004223
 Iteration  3 RMS(Cart)=  0.00001168 RMS(Int)=  0.00004154
 Iteration  4 RMS(Cart)=  0.00000000 RMS(Int)=  0.00004154
 ITry= 1 IFail=0 DXMaxC= 1.91D-01 DCOld= 1.00D+10 DXMaxT= 3.00D-01 DXLimC= 3.00D+00 Rises=F
 Variable       Old X    -DE/DX   Delta X   Delta X   Delta X     New X
                                 (Linear)    (Quad)   (Total)
    R1        2.34218  -0.05126   0.00000  -0.05398  -0.05398   2.28820
    R2        2.59633  -0.12944   0.00000  -0.22825  -0.22825   2.36808
    R3        2.68749   0.00902   0.00000   0.01866   0.01866   2.70615
    R4        2.62957   0.00567   0.00000   0.01068   0.01075   2.64032
    R5        2.57426   0.03027   0.00000   0.05122   0.05129   2.62555
    R6        2.59126   0.01541   0.00000   0.02703   0.02703   2.61828
    R7        2.03667   0.01230   0.00000   0.02910   0.02910   2.06577
    R8        2.60030   0.02593   0.00000   0.04608   0.04601   2.64631
    R9        2.03448   0.01259   0.00000   0.02968   0.02968   2.06416
   R10        2.59828   0.02009   0.00000   0.03549   0.03542   2.63369
   R11        2.05186   0.00727   0.00000   0.01762   0.01762   2.06948
   R12        2.62607   0.00360   0.00000   0.00659   0.00659   2.63266
   R13        2.00978   0.02333   0.00000   0.05285   0.05285   2.06263
   R14        2.05462   0.00545   0.00000   0.01326   0.01326   2.06788
    A1        2.07042   0.02447   0.00000   0.07985   0.07985   2.15027
    A2        2.10679  -0.00632   0.00000  -0.02064  -0.02064   2.08615
    A3        2.10597  -0.01815   0.00000  -0.05921  -0.05921   2.04676
    A4        2.08201  -0.00265   0.00000  -0.00909  -0.00916   2.07284
    A5        2.13274  -0.01245   0.00000  -0.04108  -0.04115   2.09159
    A6        2.06844   0.01510   0.00000   0.05018   0.05032   2.11876
    A7        2.13777  -0.01436   0.00000  -0.05089  -0.05081   2.08695
    A8        2.06671   0.00342   0.00000   0.00781   0.00777   2.07448
    A9        2.07871   0.01095   0.00000   0.04308   0.04304   2.12175
   A10        2.06077   0.00612   0.00000   0.02344   0.02337   2.08414
   A11        2.14118  -0.00820   0.00000  -0.03578  -0.03575   2.10543
   A12        2.08123   0.00207   0.00000   0.01234   0.01237   2.09361
   A13        2.10372   0.00037   0.00000   0.00222   0.00208   2.10580
   A14        2.13170  -0.00456   0.00000  -0.02163  -0.02156   2.11014
   A15        2.04777   0.00420   0.00000   0.01941   0.01948   2.06724
   A16        2.10243  -0.00222   0.00000  -0.00743  -0.00750   2.09493
   A17        2.08891   0.00271   0.00000   0.01120   0.01123   2.10014
   A18        2.09185  -0.00049   0.00000  -0.00377  -0.00373   2.08811
   A19        2.09325  -0.00501   0.00000  -0.01753  -0.01746   2.07579
   A20        2.06422   0.00434   0.00000   0.01736   0.01733   2.08155
   A21        2.12572   0.00067   0.00000   0.00017   0.00013   2.12585
    D1        3.14154  -0.00000   0.00000  -0.00000  -0.00000   3.14154
    D2       -0.00003  -0.00000   0.00000  -0.00001  -0.00001  -0.00003
    D3       -0.00006   0.00000   0.00000   0.00001   0.00001  -0.00005
    D4        3.14155   0.00000   0.00000   0.00001   0.00001   3.14156
    D5       -3.14157  -0.00000   0.00000  -0.00001  -0.00001  -3.14158
    D6        0.00000   0.00000   0.00000   0.00000   0.00000   0.00000
    D7        0.00000  -0.00000   0.00000  -0.00000  -0.00000  -0.00000
    D8        3.14157   0.00000   0.00000   0.00001   0.00001   3.14158
    D9        3.14157   0.00000   0.00000   0.00001   0.00001   3.14158
   D10       -0.00001   0.00000   0.00000   0.00000   0.00000  -0.00001
   D11        0.00000   0.00000   0.00000   0.00000   0.00000   0.00000
   D12       -3.14158  -0.00000   0.00000  -0.00000  -0.00000  -3.14158
   D13       -0.00000   0.00000   0.00000   0.00000   0.00000  -0.00000
   D14       -3.14158  -0.00000   0.00000  -0.00000  -0.00000  -3.14159
   D15       -3.14157  -0.00000   0.00000  -0.00001  -0.00001  -3.14158
   D16        0.00003  -0.00000   0.00000  -0.00001  -0.00001   0.00002
   D17        0.00000   0.00000   0.00000   0.00000  -0.00000   0.00000
   D18       -3.14157  -0.00000   0.00000  -0.00001  -0.00001  -3.14158
   D19        3.14158   0.00000   0.00000   0.00000   0.00000   3.14159
   D20        0.00001  -0.00000   0.00000  -0.00000  -0.00000   0.00000
   D21        0.00000  -0.00000   0.00000  -0.00000  -0.00000   0.00000
   D22       -3.14158  -0.00000   0.00000  -0.00000  -0.00000  -3.14158
   D23        3.14158   0.00000   0.00000   0.00001   0.00001   3.14158
   D24       -0.00000   0.00000   0.00000   0.00000   0.00000  -0.00000
   D25       -0.00000  -0.00000   0.00000  -0.00000  -0.00000  -0.00000
   D26        3.14158   0.00000   0.00000   0.00000   0.00000   3.14158
   D27        3.14158   0.00000   0.00000   0.00000   0.00000   3.14158
   D28       -0.00003   0.00000   0.00000   0.00001   0.00001  -0.00002
         Item               Value     Threshold  Converged?
 Maximum Force            0.129444     0.000450     NO 
 RMS     Force            0.019751     0.000300     NO 
 Maximum Displacement     0.191496     0.001800     NO 
 RMS     Displacement     0.043508     0.001200     NO 
 Predicted change in Energy=-2.539234D-02
 Lowest energy point so far.  Saving SCF results.
 GradGradGradGradGradGradGradGradGradGradGradGradGradGradGradGradGradGrad

 Leave Link  103 at Tue May 10 16:41:59 2022, MaxMem=  6442450944 cpu:               1.8 elap:               0.2
 (Enter /home1/apps/gaussian/16rA.03/g16/l202.exe)
                          Input orientation:                          
 ---------------------------------------------------------------------
 Center     Atomic      Atomic             Coordinates (Angstroms)
 Number     Number       Type             X           Y           Z
 ---------------------------------------------------------------------
      1          8           0        2.900327   -1.038352   -0.192783
      2          7           0        2.296756    0.002691   -0.058164
      3          8           0        2.863333    1.114702    0.054807
      4          6           0        0.865213   -0.010890   -0.023285
      5          6           0        0.184942    1.199500    0.132747
      6          6           0       -1.200112    1.205780    0.168738
      7          6           0       -1.896686   -0.003031    0.047945
      8          6           0       -1.210486   -1.206098   -0.107399
      9          6           0        0.182153   -1.214750   -0.143852
     10          1           0        0.763956    2.122241    0.223761
     11          1           0       -1.749468    2.142063    0.290019
     12          1           0       -2.991268   -0.026347    0.073136
     13          1           0       -1.758768   -2.145237   -0.201071
     14          1           0        0.750108   -2.142268   -0.264598
 ---------------------------------------------------------------------
                    Distance matrix (angstroms):
                    1          2          3          4          5
     1  O    0.000000
     2  N    1.210864   0.000000
     3  O    2.167559   1.253132   0.000000
     4  C    2.286065   1.432032   2.294676   0.000000
     5  C    3.533733   2.434863   2.680866   1.397197   0.000000
     6  C    4.688329   3.704996   4.066062   2.404730   1.385535
     7  C    4.913367   4.194788   4.889494   2.762829   2.405503
     8  C    4.115120   3.710033   4.691314   2.396691   2.791378
     9  C    2.724331   2.441526   3.557321   1.389383   2.430045
    10  H    3.837569   2.630865   2.334751   2.149775   1.093157
    11  H    5.654090   4.590215   4.731673   3.401460   2.157568
    12  H    5.983791   5.289734   5.964786   3.857717   3.405079
    13  H    4.788781   4.591437   5.661845   3.387081   3.882873
    14  H    2.418105   2.652468   3.895586   2.148081   3.412435
                    6          7          8          9         10
     6  C    0.000000
     7  C    1.400368   0.000000
     8  C    2.427656   1.393690   0.000000
     9  C    2.804877   2.413839   1.393143   0.000000
    10  H    2.168062   3.409796   3.884062   3.407219   0.000000
    11  H    1.092304   2.163724   3.414473   3.897127   2.514376
    12  H    2.176124   1.095120   2.143733   3.395583   4.329068
    13  H    3.417333   2.161035   1.091498   2.153197   4.975539
    14  H    3.898790   3.417533   2.178314   1.094277   4.292403
                   11         12         13         14
    11  H    0.000000
    12  H    2.508208   0.000000
    13  H    4.315344   2.466564   0.000000
    14  H    4.991089   4.311505   2.509682   0.000000
 Stoichiometry    C6H5NO2
 Framework group  C1[X(C6H5NO2)]
 Deg. of freedom    36
 Full point group                 C1      NOp   1
 RotChk:  IX=0 Diff= 1.17D-02
 Largest Abelian subgroup         C1      NOp   1
 Largest concise Abelian subgroup C1      NOp   1
                         Standard orientation:                         
 ---------------------------------------------------------------------
 Center     Atomic      Atomic             Coordinates (Angstroms)
 Number     Number       Type             X           Y           Z
 ---------------------------------------------------------------------
      1          8           0        2.288976   -1.072327    0.000037
      2          7           0        1.691723   -0.019008   -0.000001
      3          8           0        2.265391    1.095103   -0.000029
      4          6           0        0.259691   -0.019664   -0.000011
      5          6           0       -0.413230    1.204810    0.000006
      6          6           0       -1.798636    1.223725    0.000016
      7          6           0       -2.502940    0.013359    0.000006
      8          6           0       -1.824044   -1.203799   -0.000011
      9          6           0       -0.431064   -1.225169   -0.000018
     10          1           0        0.171699    2.128310    0.000024
     11          1           0       -2.342313    2.171112    0.000024
     12          1           0       -3.597977   -0.000158    0.000003
     13          1           0       -2.378333   -2.144081   -0.000025
     14          1           0        0.131270   -2.163903   -0.000021
 ---------------------------------------------------------------------
 Rotational constants (GHZ):           3.9779569           1.2998795           0.9797319
 Leave Link  202 at Tue May 10 16:41:59 2022, MaxMem=  6442450944 cpu:               0.1 elap:               0.0
 (Enter /home1/apps/gaussian/16rA.03/g16/l301.exe)
 Standard basis: def2SVP (5D, 7F)
 Ernie: Thresh=  0.10000D-02 Tol=  0.10000D-05 Strict=F.
 There are   160 symmetry adapted cartesian basis functions of A   symmetry.
 There are   151 symmetry adapted basis functions of A   symmetry.
   151 basis functions,   260 primitive gaussians,   160 cartesian basis functions
    32 alpha electrons       32 beta electrons
       nuclear repulsion energy       413.3748935234 Hartrees.
 IExCor=33909 DFT=T Ex+Corr=LC-wHPBE ExCW=0 ScaHFX=  1.000000
 ScaDFX=  1.000000  1.000000  1.000000  1.000000 ScalE2=  1.000000  1.000000
 IRadAn=      5 IRanWt=     -1 IRanGd=            0 ICorTp=0 IEmpDi=  4
 HFx  wShort=  0.000000 wLong=  0.319800 cFull=  0.000000 cShort=  0.000000 cLong=  1.000000
 DFx  wShort=  0.000000 wLong=  0.319800 cFull=  0.000000 cShort=  1.000000 cLong=  0.000000
 NAtoms=   14 NActive=   14 NUniq=   14 SFac= 1.00D+00 NAtFMM=   60 NAOKFM=F Big=F
 Integral buffers will be    131072 words long.
 Raffenetti 2 integral format.
 Two-electron integral symmetry is turned on.
 Leave Link  301 at Tue May 10 16:41:59 2022, MaxMem=  6442450944 cpu:               0.9 elap:               0.1
 (Enter /home1/apps/gaussian/16rA.03/g16/l302.exe)
 NPDir=0 NMtPBC=     1 NCelOv=     1 NCel=       1 NClECP=     1 NCelD=      1
         NCelK=      1 NCelE2=     1 NClLst=     1 CellRange=     0.0.
 One-electron integrals computed using PRISM.
 One-electron integral symmetry used in STVInt
   1 Symmetry operations used in ECPInt.
 ECPInt:  NShTT=    2415 NPrTT=    9043 LenC2=    2382 LenP2D=    7046.
 LDataN:  DoStor=T MaxTD1= 4 Len=   56
 NBasis=   151 RedAO= T EigKep=  2.83D-04  NBF=   151
 NBsUse=   151 1.00D-06 EigRej= -1.00D+00 NBFU=   151
 Precomputing XC quadrature grid using
 IXCGrd= 4 IRadAn=           5 IRanWt=          -1 IRanGd=           0 AccXCQ= 0.00D+00.
 Generated NRdTot=       0 NPtTot=           0 NUsed=           0 NTot=          32
 NSgBfM=   160   160   160   160   160 MxSgAt=    14 MxSgA2=    14.
 Leave Link  302 at Tue May 10 16:41:59 2022, MaxMem=  6442450944 cpu:               2.5 elap:               0.2
 (Enter /home1/apps/gaussian/16rA.03/g16/l303.exe)
 DipDrv:  MaxL=1.
 Leave Link  303 at Tue May 10 16:41:59 2022, MaxMem=  6442450944 cpu:               0.4 elap:               0.0
 (Enter /home1/apps/gaussian/16rA.03/g16/l401.exe)
 Initial guess from the checkpoint file:  "/work/08504/tg878040/stampede2/d3tales/runfiles//06RACX/gaussian/gas_phase/opt/opt_groundState.chk"
 B after Tr=     0.000000   -0.000000    0.000000
         Rot=    0.999993    0.000000   -0.000000   -0.003769 Ang=   0.43 deg.
 Guess basis will be translated and rotated to current coordinates.
 JPrj=2 DoOrth=T DoCkMO=T.
 Generating alternative initial guess.
 ExpMin= 1.22D-01 ExpMax= 2.27D+03 ExpMxC= 3.41D+02 IAcc=2 IRadAn=         4 AccDes= 0.00D+00
 Harris functional with IExCor=33909 and IRadAn=       4 diagonalized for initial guess.
 HarFok:  IExCor=33909 AccDes= 0.00D+00 IRadAn=         4 IDoV= 1 UseB2=F ITyADJ=14
 ICtDFT=  3500011 ScaDFX=  1.000000  1.000000  1.000000  1.000000
 FoFCou: FMM=F IPFlag=           0 FMFlag=      100000 FMFlg1=           0
         NFxFlg=           0 DoJE=T BraDBF=F KetDBF=T FulRan=T
         wScrn=  0.000000 ICntrl=       500 IOpCl=  0 I1Cent=   200000004 NGrid=           0
         NMat0=    1 NMatS0=      1 NMatT0=    0 NMatD0=    1 NMtDS0=    0 NMtDT0=    0
 Petite list used in FoFCou.
 Harris En= -425.592759255799    
 Leave Link  401 at Tue May 10 16:42:00 2022, MaxMem=  6442450944 cpu:               5.6 elap:               0.4
 (Enter /home1/apps/gaussian/16rA.03/g16/l502.exe)
 Integral symmetry usage will be decided dynamically.
 Closed shell SCF:
 Using DIIS extrapolation, IDIIS=  1040.
 NGot=  6442450944 LenX=  6442395426 LenY=  6442369385
 Requested convergence on RMS density matrix=1.00D-08 within 512 cycles.
 Requested convergence on MAX density matrix=1.00D-06.
 Requested convergence on             energy=1.00D-06.
 No special actions if energy rises.
 Fock matrices will be formed incrementally for  20 cycles.
 Integral accuracy reduced to 1.0D-05 until final iterations.

 Cycle   1  Pass 0  IDiag  1:
 FoFJK:  IHMeth= 1 ICntrl=       0 DoSepK=T KAlg= 0 I1Cent=           0 FoldK=F
 IRaf=         1 NMat=       1 IRICut=       1 DoRegI=T DoRafI=F ISym2E= 0 IDoP0=0 IntGTp=1.
 FoFCou: FMM=F IPFlag=           0 FMFlag=      100000 FMFlg1=           0
         NFxFlg=           0 DoJE=T BraDBF=F KetDBF=F FulRan=T
         wScrn=  0.000000 ICntrl=       500 IOpCl=  0 I1Cent=           0 NGrid=           0
         NMat0=    1 NMatS0=      1 NMatT0=    0 NMatD0=    1 NMtDS0=    0 NMtDT0=    0
 Symmetry not used in FoFCou.
 E= -436.101528903670    
 DIIS: error= 7.27D-03 at cycle   1 NSaved=   1.
 NSaved= 1 IEnMin= 1 EnMin= -436.101528903670     IErMin= 1 ErrMin= 7.27D-03
 ErrMax= 7.27D-03  0.00D+00 EMaxC= 1.00D-01 BMatC= 1.09D-02 BMatP= 1.09D-02
 IDIUse=3 WtCom= 9.27D-01 WtEn= 7.27D-02
 Coeff-Com:  0.100D+01
 Coeff-En:   0.100D+01
 Coeff:      0.100D+01
 Gap=     0.883 Goal=   None    Shift=    0.000
 GapD=    0.883 DampG=2.000 DampE=1.000 DampFc=2.0000 IDamp=-1.
 RMSDP=1.59D-03 MaxDP=2.76D-02              OVMax= 2.46D-02

 Cycle   2  Pass 0  IDiag  1:
 RMSU=  1.55D-03    CP:  9.87D-01
 E= -436.113818764710     Delta-E=       -0.012289861040 Rises=F Damp=F
 DIIS: error= 2.59D-03 at cycle   2 NSaved=   2.
 NSaved= 2 IEnMin= 2 EnMin= -436.113818764710     IErMin= 2 ErrMin= 2.59D-03
 ErrMax= 2.59D-03  0.00D+00 EMaxC= 1.00D-01 BMatC= 8.95D-04 BMatP= 1.09D-02
 IDIUse=3 WtCom= 9.74D-01 WtEn= 2.59D-02
 Coeff-Com:  0.427D-01 0.957D+00
 Coeff-En:   0.000D+00 0.100D+01
 Coeff:      0.416D-01 0.958D+00
 Gap=     0.364 Goal=   None    Shift=    0.000
 RMSDP=3.71D-04 MaxDP=1.19D-02 DE=-1.23D-02 OVMax= 1.58D-02

 Cycle   3  Pass 0  IDiag  1:
 RMSU=  3.46D-04    CP:  9.86D-01  1.08D+00
 E= -436.114155363891     Delta-E=       -0.000336599181 Rises=F Damp=F
 DIIS: error= 3.76D-03 at cycle   3 NSaved=   3.
 NSaved= 3 IEnMin= 3 EnMin= -436.114155363891     IErMin= 2 ErrMin= 2.59D-03
 ErrMax= 3.76D-03  0.00D+00 EMaxC= 1.00D-01 BMatC= 1.14D-03 BMatP= 8.95D-04
 IDIUse=3 WtCom= 1.40D-01 WtEn= 8.60D-01
 Coeff-Com: -0.701D-01 0.556D+00 0.514D+00
 Coeff-En:   0.000D+00 0.375D+00 0.625D+00
 Coeff:     -0.983D-02 0.400D+00 0.610D+00
 Gap=     0.368 Goal=   None    Shift=    0.000
 RMSDP=2.65D-04 MaxDP=9.98D-03 DE=-3.37D-04 OVMax= 1.74D-02

 Cycle   4  Pass 0  IDiag  1:
 RMSU=  1.85D-04    CP:  9.85D-01  1.13D+00  5.05D-01
 E= -436.114689301089     Delta-E=       -0.000533937198 Rises=F Damp=F
 DIIS: error= 3.11D-03 at cycle   4 NSaved=   4.
 NSaved= 4 IEnMin= 4 EnMin= -436.114689301089     IErMin= 2 ErrMin= 2.59D-03
 ErrMax= 3.11D-03  0.00D+00 EMaxC= 1.00D-01 BMatC= 4.36D-04 BMatP= 8.95D-04
 IDIUse=3 WtCom= 9.69D-01 WtEn= 3.11D-02
 Coeff-Com: -0.447D-01 0.158D+00 0.413D+00 0.473D+00
 Coeff-En:   0.000D+00 0.000D+00 0.292D+00 0.708D+00
 Coeff:     -0.433D-01 0.153D+00 0.410D+00 0.480D+00
 Gap=     0.359 Goal=   None    Shift=    0.000
 RMSDP=1.11D-04 MaxDP=4.51D-03 DE=-5.34D-04 OVMax= 8.68D-03

 Cycle   5  Pass 0  IDiag  1:
 RMSU=  6.06D-05    CP:  9.85D-01  1.14D+00  7.21D-01  7.08D-01
 E= -436.115021217323     Delta-E=       -0.000331916235 Rises=F Damp=F
 DIIS: error= 2.19D-04 at cycle   5 NSaved=   5.
 NSaved= 5 IEnMin= 5 EnMin= -436.115021217323     IErMin= 5 ErrMin= 2.19D-04
 ErrMax= 2.19D-04  0.00D+00 EMaxC= 1.00D-01 BMatC= 7.09D-06 BMatP= 4.36D-04
 IDIUse=3 WtCom= 9.98D-01 WtEn= 2.19D-03
 Coeff-Com:  0.128D-02-0.511D-01 0.838D-02 0.139D+00 0.902D+00
 Coeff-En:   0.000D+00 0.000D+00 0.000D+00 0.000D+00 0.100D+01
 Coeff:      0.128D-02-0.510D-01 0.837D-02 0.139D+00 0.902D+00
 Gap=     0.359 Goal=   None    Shift=    0.000
 RMSDP=2.92D-05 MaxDP=6.24D-04 DE=-3.32D-04 OVMax= 1.02D-03

 Cycle   6  Pass 0  IDiag  1:
 RMSU=  1.36D-05    CP:  9.85D-01  1.14D+00  7.45D-01  8.33D-01  1.11D+00
 E= -436.115029056564     Delta-E=       -0.000007839240 Rises=F Damp=F
 DIIS: error= 8.72D-05 at cycle   6 NSaved=   6.
 NSaved= 6 IEnMin= 6 EnMin= -436.115029056564     IErMin= 6 ErrMin= 8.72D-05
 ErrMax= 8.72D-05  0.00D+00 EMaxC= 1.00D-01 BMatC= 6.82D-07 BMatP= 7.09D-06
 IDIUse=1 WtCom= 1.00D+00 WtEn= 0.00D+00
 Coeff-Com:  0.301D-02-0.305D-01-0.224D-01 0.330D-01 0.365D+00 0.652D+00
 Coeff:      0.301D-02-0.305D-01-0.224D-01 0.330D-01 0.365D+00 0.652D+00
 Gap=     0.359 Goal=   None    Shift=    0.000
 RMSDP=7.06D-06 MaxDP=1.86D-04 DE=-7.84D-06 OVMax= 3.88D-04

 Initial convergence to 1.0D-05 achieved.  Increase integral accuracy.
 Cycle   7  Pass 1  IDiag  1:
 E= -436.115039538308     Delta-E=       -0.000010481744 Rises=F Damp=F
 DIIS: error= 2.98D-05 at cycle   1 NSaved=   1.
 NSaved= 1 IEnMin= 1 EnMin= -436.115039538308     IErMin= 1 ErrMin= 2.98D-05
 ErrMax= 2.98D-05  0.00D+00 EMaxC= 1.00D-01 BMatC= 1.57D-07 BMatP= 1.57D-07
 IDIUse=1 WtCom= 1.00D+00 WtEn= 0.00D+00
 Coeff-Com:  0.100D+01
 Coeff:      0.100D+01
 Gap=     0.359 Goal=   None    Shift=    0.000
 RMSDP=7.06D-06 MaxDP=1.86D-04 DE=-1.05D-05 OVMax= 2.52D-04

 Cycle   8  Pass 1  IDiag  1:
 RMSU=  1.21D-05    CP:  1.00D+00
 E= -436.115039623732     Delta-E=       -0.000000085424 Rises=F Damp=F
 DIIS: error= 4.37D-05 at cycle   2 NSaved=   2.
 NSaved= 2 IEnMin= 2 EnMin= -436.115039623732     IErMin= 1 ErrMin= 2.98D-05
 ErrMax= 4.37D-05  0.00D+00 EMaxC= 1.00D-01 BMatC= 2.24D-07 BMatP= 1.57D-07
 IDIUse=1 WtCom= 1.00D+00 WtEn= 0.00D+00
 Coeff-Com:  0.550D+00 0.450D+00
 Coeff:      0.550D+00 0.450D+00
 Gap=     0.359 Goal=   None    Shift=    0.000
 RMSDP=2.52D-06 MaxDP=1.05D-04 DE=-8.54D-08 OVMax= 1.14D-04

 Cycle   9  Pass 1  IDiag  1:
 RMSU=  2.49D-06    CP:  1.00D+00  1.00D+00
 E= -436.115039796734     Delta-E=       -0.000000173002 Rises=F Damp=F
 DIIS: error= 1.25D-05 at cycle   3 NSaved=   3.
 NSaved= 3 IEnMin= 3 EnMin= -436.115039796734     IErMin= 3 ErrMin= 1.25D-05
 ErrMax= 1.25D-05  0.00D+00 EMaxC= 1.00D-01 BMatC= 1.12D-08 BMatP= 1.57D-07
 IDIUse=1 WtCom= 1.00D+00 WtEn= 0.00D+00
 Coeff-Com: -0.778D-01 0.938D-01 0.984D+00
 Coeff:     -0.778D-01 0.938D-01 0.984D+00
 Gap=     0.359 Goal=   None    Shift=    0.000
 RMSDP=1.78D-06 MaxDP=2.76D-05 DE=-1.73D-07 OVMax= 1.30D-04

 Cycle  10  Pass 1  IDiag  1:
 RMSU=  1.28D-06    CP:  1.00D+00  1.10D+00  1.07D+00
 E= -436.115039825705     Delta-E=       -0.000000028971 Rises=F Damp=F
 DIIS: error= 1.03D-05 at cycle   4 NSaved=   4.
 NSaved= 4 IEnMin= 4 EnMin= -436.115039825705     IErMin= 4 ErrMin= 1.03D-05
 ErrMax= 1.03D-05  0.00D+00 EMaxC= 1.00D-01 BMatC= 7.07D-09 BMatP= 1.12D-08
 IDIUse=1 WtCom= 1.00D+00 WtEn= 0.00D+00
 Coeff-Com: -0.198D+00-0.436D-01 0.661D+00 0.580D+00
 Coeff:     -0.198D+00-0.436D-01 0.661D+00 0.580D+00
 Gap=     0.359 Goal=   None    Shift=    0.000
 RMSDP=8.69D-07 MaxDP=2.05D-05 DE=-2.90D-08 OVMax= 6.14D-05

 Cycle  11  Pass 1  IDiag  1:
 RMSU=  6.51D-07    CP:  1.00D+00  1.13D+00  1.17D+00  1.26D+00
 E= -436.115039837325     Delta-E=       -0.000000011620 Rises=F Damp=F
 DIIS: error= 3.47D-06 at cycle   5 NSaved=   5.
 NSaved= 5 IEnMin= 5 EnMin= -436.115039837325     IErMin= 5 ErrMin= 3.47D-06
 ErrMax= 3.47D-06  0.00D+00 EMaxC= 1.00D-01 BMatC= 6.54D-10 BMatP= 7.07D-09
 IDIUse=1 WtCom= 1.00D+00 WtEn= 0.00D+00
 Coeff-Com: -0.404D-01-0.373D-01-0.931D-01 0.174D+00 0.997D+00
 Coeff:     -0.404D-01-0.373D-01-0.931D-01 0.174D+00 0.997D+00
 Gap=     0.359 Goal=   None    Shift=    0.000
 RMSDP=5.59D-07 MaxDP=1.04D-05 DE=-1.16D-08 OVMax= 4.28D-05

 Cycle  12  Pass 1  IDiag  1:
 RMSU=  2.16D-07    CP:  1.00D+00  1.14D+00  1.19D+00  1.63D+00  1.30D+00
 E= -436.115039839815     Delta-E=       -0.000000002490 Rises=F Damp=F
 DIIS: error= 1.28D-06 at cycle   6 NSaved=   6.
 NSaved= 6 IEnMin= 6 EnMin= -436.115039839815     IErMin= 6 ErrMin= 1.28D-06
 ErrMax= 1.28D-06  0.00D+00 EMaxC= 1.00D-01 BMatC= 1.28D-10 BMatP= 6.54D-10
 IDIUse=1 WtCom= 1.00D+00 WtEn= 0.00D+00
 Coeff-Com:  0.157D-01-0.832D-02-0.141D+00-0.240D-01 0.447D+00 0.711D+00
 Coeff:      0.157D-01-0.832D-02-0.141D+00-0.240D-01 0.447D+00 0.711D+00
 Gap=     0.359 Goal=   None    Shift=    0.000
 RMSDP=1.53D-07 MaxDP=3.00D-06 DE=-2.49D-09 OVMax= 1.36D-05

 Cycle  13  Pass 1  IDiag  1:
 RMSU=  1.06D-07    CP:  1.00D+00  1.14D+00  1.20D+00  1.69D+00  1.39D+00
                    CP:  1.00D+00
 E= -436.115039840105     Delta-E=       -0.000000000290 Rises=F Damp=F
 DIIS: error= 4.42D-07 at cycle   7 NSaved=   7.
 NSaved= 7 IEnMin= 7 EnMin= -436.115039840105     IErMin= 7 ErrMin= 4.42D-07
 ErrMax= 4.42D-07  0.00D+00 EMaxC= 1.00D-01 BMatC= 1.05D-11 BMatP= 1.28D-10
 IDIUse=1 WtCom= 1.00D+00 WtEn= 0.00D+00
 Coeff-Com:  0.564D-02 0.176D-02 0.597D-02-0.283D-01-0.763D-01 0.250D-03
 Coeff-Com:  0.109D+01
 Coeff:      0.564D-02 0.176D-02 0.597D-02-0.283D-01-0.763D-01 0.250D-03
 Coeff:      0.109D+01
 Gap=     0.359 Goal=   None    Shift=    0.000
 RMSDP=7.15D-08 MaxDP=1.28D-06 DE=-2.90D-10 OVMax= 6.00D-06

 Cycle  14  Pass 1  IDiag  1:
 RMSU=  3.55D-08    CP:  1.00D+00  1.14D+00  1.20D+00  1.70D+00  1.42D+00
                    CP:  1.16D+00  1.41D+00
 E= -436.115039840152     Delta-E=       -0.000000000047 Rises=F Damp=F
 DIIS: error= 2.15D-07 at cycle   8 NSaved=   8.
 NSaved= 8 IEnMin= 8 EnMin= -436.115039840152     IErMin= 8 ErrMin= 2.15D-07
 ErrMax= 2.15D-07  0.00D+00 EMaxC= 1.00D-01 BMatC= 3.44D-12 BMatP= 1.05D-11
 IDIUse=1 WtCom= 1.00D+00 WtEn= 0.00D+00
 Coeff-Com: -0.145D-02 0.209D-02 0.365D-01-0.753D-02-0.131D+00-0.180D+00
 Coeff-Com:  0.455D+00 0.827D+00
 Coeff:     -0.145D-02 0.209D-02 0.365D-01-0.753D-02-0.131D+00-0.180D+00
 Coeff:      0.455D+00 0.827D+00
 Gap=     0.359 Goal=   None    Shift=    0.000
 RMSDP=3.36D-08 MaxDP=6.41D-07 DE=-4.74D-11 OVMax= 2.61D-06

 Cycle  15  Pass 1  IDiag  1:
 RMSU=  1.51D-08    CP:  1.00D+00  1.14D+00  1.20D+00  1.71D+00  1.43D+00
                    CP:  1.21D+00  1.66D+00  1.20D+00
 E= -436.115039840161     Delta-E=       -0.000000000009 Rises=F Damp=F
 DIIS: error= 4.86D-08 at cycle   9 NSaved=   9.
 NSaved= 9 IEnMin= 9 EnMin= -436.115039840161     IErMin= 9 ErrMin= 4.86D-08
 ErrMax= 4.86D-08  0.00D+00 EMaxC= 1.00D-01 BMatC= 2.30D-13 BMatP= 3.44D-12
 IDIUse=1 WtCom= 1.00D+00 WtEn= 0.00D+00
 Coeff-Com: -0.101D-02 0.514D-05 0.605D-02 0.249D-02-0.137D-01-0.398D-01
 Coeff-Com: -0.558D-01 0.167D+00 0.935D+00
 Coeff:     -0.101D-02 0.514D-05 0.605D-02 0.249D-02-0.137D-01-0.398D-01
 Coeff:     -0.558D-01 0.167D+00 0.935D+00
 Gap=     0.359 Goal=   None    Shift=    0.000
 RMSDP=1.14D-08 MaxDP=1.78D-07 DE=-9.32D-12 OVMax= 8.06D-07

 Cycle  16  Pass 1  IDiag  1:
 RMSU=  3.95D-09    CP:  1.00D+00  1.14D+00  1.20D+00  1.71D+00  1.43D+00
                    CP:  1.21D+00  1.71D+00  1.40D+00  1.22D+00
 E= -436.115039840162     Delta-E=       -0.000000000001 Rises=F Damp=F
 DIIS: error= 1.86D-08 at cycle  10 NSaved=  10.
 NSaved=10 IEnMin=10 EnMin= -436.115039840162     IErMin=10 ErrMin= 1.86D-08
 ErrMax= 1.86D-08  0.00D+00 EMaxC= 1.00D-01 BMatC= 1.51D-14 BMatP= 2.30D-13
 IDIUse=1 WtCom= 1.00D+00 WtEn= 0.00D+00
 Coeff-Com:  0.325D-03-0.229D-03-0.503D-02 0.598D-03 0.169D-01 0.251D-01
 Coeff-Com: -0.357D-01-0.124D+00-0.173D+00 0.130D+01
 Coeff:      0.325D-03-0.229D-03-0.503D-02 0.598D-03 0.169D-01 0.251D-01
 Coeff:     -0.357D-01-0.124D+00-0.173D+00 0.130D+01
 Gap=     0.359 Goal=   None    Shift=    0.000
 RMSDP=4.30D-09 MaxDP=6.32D-08 DE=-7.96D-13 OVMax= 2.54D-07

 SCF Done:  E(RLC-wHPBE) =  -436.115039840     A.U. after   16 cycles
            NFock= 16  Conv=0.43D-08     -V/T= 2.0093
 KE= 4.321125997029D+02 PE=-1.843481434382D+03 EE= 5.618789013153D+02
 Leave Link  502 at Tue May 10 16:42:09 2022, MaxMem=  6442450944 cpu:             143.4 elap:               9.0
 (Enter /home1/apps/gaussian/16rA.03/g16/l701.exe)
 ... and contract with generalized density number  0.
 Compute integral first derivatives.
   1 Symmetry operations used in ECPInt.
 ECPInt:  NShTT=    2415 NPrTT=    9043 LenC2=    2382 LenP2D=    7046.
 LDataN:  DoStor=T MaxTD1= 5 Len=  102
 Leave Link  701 at Tue May 10 16:42:09 2022, MaxMem=  6442450944 cpu:               2.3 elap:               0.2
 (Enter /home1/apps/gaussian/16rA.03/g16/l702.exe)
 L702 exits ... SP integral derivatives will be done elsewhere.
 Leave Link  702 at Tue May 10 16:42:09 2022, MaxMem=  6442450944 cpu:               0.4 elap:               0.0
 (Enter /home1/apps/gaussian/16rA.03/g16/l703.exe)
 Integral derivatives from FoFJK, PRISM(SPDF).
 Compute integral first derivatives, UseDBF=F ICtDFT=           0.
 Calling FoFJK, ICntrl=      2127 FMM=F ISym2X=0 I1Cent= 0 IOpClX= 0 NMat=1 NMatS=1 NMatT=0.
 FoFJK:  IHMeth= 1 ICntrl=    2127 DoSepK=T KAlg= 0 I1Cent=           0 FoldK=F
 IRaf=         1 NMat=       1 IRICut=       1 DoRegI=T DoRafI=F ISym2E= 0 IDoP0=0 IntGTp=1.
 FoFCou: FMM=F IPFlag=           0 FMFlag=      100000 FMFlg1=         800
         NFxFlg=           0 DoJE=F BraDBF=F KetDBF=F FulRan=T
         wScrn=  0.000000 ICntrl=      2527 IOpCl=  0 I1Cent=           0 NGrid=           0
         NMat0=    1 NMatS0=      1 NMatT0=    0 NMatD0=    1 NMtDS0=    0 NMtDT0=    0
 Symmetry not used in FoFCou.
 Leave Link  703 at Tue May 10 16:42:11 2022, MaxMem=  6442450944 cpu:              24.3 elap:               1.5
 (Enter /home1/apps/gaussian/16rA.03/g16/l716.exe)
 Dipole        =-1.75841547D+00-8.00004925D-02-2.99423912D-06
 ***** Axes restored to original set *****
 -------------------------------------------------------------------
 Center     Atomic                   Forces (Hartrees/Bohr)
 Number     Number              X              Y              Z
 -------------------------------------------------------------------
      1        8          -0.004850370   -0.002595095   -0.000174134
      2        7           0.049158637    0.041086124    0.003455610
      3        8          -0.021636373   -0.038335130   -0.003841072
      4        6          -0.026260962    0.004072086    0.001136124
      5        6           0.004884254    0.002617650    0.000176433
      6        6          -0.004786761   -0.008684458   -0.000873989
      7        6          -0.000354983   -0.000219297   -0.000016962
      8        6           0.003324107    0.003313557    0.000294418
      9        6           0.001310207   -0.003654270   -0.000451546
     10        1           0.000600379   -0.000723974   -0.000098881
     11        1           0.000170799    0.001880156    0.000211470
     12        1          -0.000420464    0.002410851    0.000287419
     13        1          -0.001247554   -0.001845236   -0.000179314
     14        1           0.000109085    0.000677037    0.000074424
 -------------------------------------------------------------------
 Cartesian Forces:  Max     0.049158637 RMS     0.012900994
 Leave Link  716 at Tue May 10 16:42:11 2022, MaxMem=  6442450944 cpu:               0.4 elap:               0.0
 (Enter /home1/apps/gaussian/16rA.03/g16/l103.exe)

 GradGradGradGradGradGradGradGradGradGradGradGradGradGradGradGradGradGrad
 Berny optimization.
 Using GEDIIS/GDIIS optimizer.
 FormGI is forming the generalized inverse of G from B-inverse, IUseBI=4.
 Internal  Forces:  Max     0.044147378 RMS     0.006502762
 Search for a local minimum.
 Step number   2 out of a maximum of   73
 All quantities printed in internal units (Hartrees-Bohrs-Radians)
 RMS Force = .65028D-02 SwitMx=.10000D-02 MixMth= 1
 Mixed Optimization -- RFO/linear search
 Update second derivatives using D2CorX and points    1    2
 DE= -3.03D-02 DEPred=-2.54D-02 R= 1.19D+00
 TightC=F SS=  1.41D+00  RLast= 3.00D-01 DXNew= 5.0454D-01 9.0000D-01
 Trust test= 1.19D+00 RLast= 3.00D-01 DXMaxT set to 5.05D-01
 ITU=  1  0
 Use linear search instead of GDIIS.
     Eigenvalues ---    0.01399   0.01399   0.02092   0.02293   0.02312
     Eigenvalues ---    0.02333   0.02389   0.02413   0.02416   0.02441
     Eigenvalues ---    0.02480   0.15909   0.16000   0.16000   0.16000
     Eigenvalues ---    0.16053   0.21805   0.22018   0.23474   0.24217
     Eigenvalues ---    0.25000   0.25779   0.34552   0.35159   0.35364
     Eigenvalues ---    0.36337   0.36634   0.38607   0.43683   0.44830
     Eigenvalues ---    0.45859   0.48962   0.49343   0.50349   0.54535
     Eigenvalues ---    0.90012
 RFO step:  Lambda=-3.62986877D-03 EMin= 1.39867338D-02
 Quartic linear search produced a step of  0.25260.
 Iteration  1 RMS(Cart)=  0.02324983 RMS(Int)=  0.00036942
 Iteration  2 RMS(Cart)=  0.00041692 RMS(Int)=  0.00001242
 Iteration  3 RMS(Cart)=  0.00000018 RMS(Int)=  0.00001241
 ITry= 1 IFail=0 DXMaxC= 1.09D-01 DCOld= 1.00D+10 DXMaxT= 5.05D-01 DXLimC= 3.00D+00 Rises=F
 Variable       Old X    -DE/DX   Delta X   Delta X   Delta X     New X
                                 (Linear)    (Quad)   (Total)
    R1        2.28820  -0.00017  -0.01363   0.01225  -0.00138   2.28682
    R2        2.36808  -0.04415  -0.05766  -0.04674  -0.10439   2.26368
    R3        2.70615   0.02268   0.00471   0.06134   0.06605   2.77220
    R4        2.64032  -0.00260   0.00272  -0.00970  -0.00696   2.63336
    R5        2.62555   0.00114   0.01296  -0.01100   0.00197   2.62753
[...]
 ! R12   R(8,9)                  1.3921         -DE/DX =    0.0                 !
 ! R13   R(8,13)                 1.095          -DE/DX =    0.0                 !
 ! R14   R(9,14)                 1.0931         -DE/DX =    0.0                 !
 ! A1    A(1,2,3)              125.1358         -DE/DX =    0.0                 !
 ! A2    A(1,2,4)              117.4339         -DE/DX =    0.0                 !
 ! A3    A(3,2,4)              117.4302         -DE/DX =    0.0                 !
 ! A4    A(2,4,5)              118.7201         -DE/DX =    0.0                 !
 ! A5    A(2,4,9)              118.7229         -DE/DX =    0.0                 !
 ! A6    A(5,4,9)              122.557          -DE/DX =    0.0                 !
 ! A7    A(4,5,6)              118.3936         -DE/DX =    0.0                 !
 ! A8    A(4,5,10)             119.2048         -DE/DX =    0.0                 !
 ! A9    A(6,5,10)             122.4016         -DE/DX =    0.0                 !
 ! A10   A(5,6,7)              120.1328         -DE/DX =    0.0                 !
 ! A11   A(5,6,11)             119.696          -DE/DX =    0.0                 !
 ! A12   A(7,6,11)             120.1712         -DE/DX =    0.0                 !
 ! A13   A(6,7,8)              120.3893         -DE/DX =    0.0                 !
 ! A14   A(6,7,12)             119.7991         -DE/DX =    0.0                 !
 ! A15   A(8,7,12)             119.8116         -DE/DX =    0.0                 !
 ! A16   A(7,8,9)              120.1334         -DE/DX =    0.0                 !
 ! A17   A(7,8,13)             120.173          -DE/DX =    0.0                 !
 ! A18   A(9,8,13)             119.6936         -DE/DX =    0.0                 !
 ! A19   A(4,9,8)              118.3939         -DE/DX =    0.0                 !
 ! A20   A(4,9,14)             119.2064         -DE/DX =    0.0                 !
 ! A21   A(8,9,14)             122.3997         -DE/DX =    0.0                 !
 ! D1    D(1,2,4,5)            179.999          -DE/DX =    0.0                 !
 ! D2    D(1,2,4,9)             -0.0011         -DE/DX =    0.0                 !
 ! D3    D(3,2,4,5)             -0.0008         -DE/DX =    0.0                 !
 ! D4    D(3,2,4,9)            179.9991         -DE/DX =    0.0                 !
 ! D5    D(2,4,5,6)           -180.0001         -DE/DX =    0.0                 !
 ! D6    D(2,4,5,10)             0.0            -DE/DX =    0.0                 !
 ! D7    D(9,4,5,6)              0.0            -DE/DX =    0.0                 !
 ! D8    D(9,4,5,10)          -179.9999         -DE/DX =    0.0                 !
 ! D9    D(2,4,9,8)           -179.9999         -DE/DX =    0.0                 !
 ! D10   D(2,4,9,14)             0.0001         -DE/DX =    0.0                 !
 ! D11   D(5,4,9,8)              0.0            -DE/DX =    0.0                 !
 ! D12   D(5,4,9,14)          -180.0            -DE/DX =    0.0                 !
 ! D13   D(4,5,6,7)              0.0            -DE/DX =    0.0                 !
 ! D14   D(4,5,6,11)           180.0            -DE/DX =    0.0                 !
 ! D15   D(10,5,6,7)           179.9999         -DE/DX =    0.0                 !
 ! D16   D(10,5,6,11)           -0.0001         -DE/DX =    0.0                 !
 ! D17   D(5,6,7,8)              0.0            -DE/DX =    0.0                 !
 ! D18   D(5,6,7,12)          -180.0            -DE/DX =    0.0                 !
 ! D19   D(11,6,7,8)          -180.0            -DE/DX =    0.0                 !
 ! D20   D(11,6,7,12)            0.0            -DE/DX =    0.0                 !
 ! D21   D(6,7,8,9)              0.0            -DE/DX =    0.0                 !
 ! D22   D(6,7,8,13)          -180.0            -DE/DX =    0.0                 !
 ! D23   D(12,7,8,9)          -180.0            -DE/DX =    0.0                 !
 ! D24   D(12,7,8,13)            0.0            -DE/DX =    0.0                 !
 ! D25   D(7,8,9,4)              0.0            -DE/DX =    0.0                 !
 ! D26   D(7,8,9,14)           179.9999         -DE/DX =    0.0                 !
 ! D27   D(13,8,9,4)           180.0            -DE/DX =    0.0                 !
 ! D28   D(13,8,9,14)           -0.0001         -DE/DX =    0.0                 !
 --------------------------------------------------------------------------------
 Lowest energy point so far.  Saving SCF results.
 Largest change from initial coordinates is atom    3       0.080 Angstoms.
 GradGradGradGradGradGradGradGradGradGradGradGradGradGradGradGradGradGrad

 Leave Link  103 at Tue May 10 16:43:19 2022, MaxMem=  6442450944 cpu:               0.3 elap:               0.0
 (Enter /home1/apps/gaussian/16rA.03/g16/l202.exe)
                          Input orientation:                          
 ---------------------------------------------------------------------
 Center     Atomic      Atomic             Coordinates (Angstroms)
 Number     Number       Type             X           Y           Z
 ---------------------------------------------------------------------
      1          8           0        2.889797   -1.055525   -0.194512
      2          7           0        2.329326    0.010994   -0.058043
      3          8           0        2.885703    1.082828    0.050604
      4          6           0        0.848818    0.003983   -0.021153
      5          6           0        0.179024    1.211516    0.134279
      6          6           0       -1.212614    1.197045    0.168050
      7          6           0       -1.903644   -0.008990    0.047434
      8          6           0       -1.208133   -1.208484   -0.107731
      9          6           0        0.183517   -1.209835   -0.143315
     10          1           0        0.757552    2.134437    0.225313
     11          1           0       -1.762075    2.136353    0.289681
     12          1           0       -2.998656   -0.014039    0.074733
     13          1           0       -1.754052   -2.152972   -0.202069
     14          1           0        0.765437   -2.127308   -0.263269
 ---------------------------------------------------------------------
                    Distance matrix (angstroms):
                    1          2          3          4          5
     1  O    0.000000
     2  N    1.212524   0.000000
     3  O    2.152360   1.212513   0.000000
     4  C    2.306124   1.480984   2.306070   0.000000
     5  C    3.549067   2.470231   2.711029   1.389576   0.000000
     6  C    4.694177   3.742082   4.101590   2.389288   1.392123
     7  C    4.912316   4.234331   4.912222   2.753347   2.415509
     8  C    4.101702   3.742087   4.694110   2.389271   2.799852
     9  C    2.711159   2.470261   3.549044   1.389569   2.437215
    10  H    3.859868   2.657024   2.380217   2.146605   1.093053
    11  H    5.662370   4.623594   4.771678   3.385318   2.155768
    12  H    5.985905   5.329695   5.985765   3.848711   3.406344
    13  H    4.771769   4.623578   5.662294   3.385280   3.894829
    14  H    2.380410   2.657104   3.859924   2.146619   3.413162
                    6          7          8          9         10
     6  C    0.000000
     7  C    1.395203   0.000000
     8  C    2.421290   1.395205   0.000000
     9  C    2.799857   2.415503   1.392106   0.000000
    10  H    2.182553   3.421679   3.892295   3.413145   0.000000
    11  H    1.094989   2.163613   3.413608   3.894841   2.520450
    12  H    2.159949   1.095364   2.160084   3.406420   4.329864
    13  H    3.413614   2.163629   1.094982   2.155722   4.987253
    14  H    3.892306   3.421666   2.182523   1.093059   4.289668
                   11         12         13         14
    11  H    0.000000
    12  H    2.489884   0.000000
    13  H    4.317429   2.490119   0.000000
    14  H    4.987271   4.329959   2.520363   0.000000
 Stoichiometry    C6H5NO2
 Framework group  C1[X(C6H5NO2)]
 Deg. of freedom    36
 Full point group                 C1      NOp   1
 RotChk:  IX=1 Diff= 6.05D-16
 Largest Abelian subgroup         C1      NOp   1
 Largest concise Abelian subgroup C1      NOp   1
                         Standard orientation:                         
 ---------------------------------------------------------------------
 Center     Atomic      Atomic             Coordinates (Angstroms)
 Number     Number       Type             X           Y           Z
 ---------------------------------------------------------------------
      1          8           0        2.281674   -1.076156    0.000014
      2          7           0        1.723016    0.000001   -0.000001
      3          8           0        2.281564    1.076203   -0.000013
      4          6           0        0.242032   -0.000023    0.000000
      5          6           0       -0.425722    1.218594    0.000005
      6          6           0       -1.817822    1.210638    0.000005
      7          6           0       -2.511315   -0.000006   -0.000000
      8          6           0       -1.817822   -1.210651   -0.000005
      9          6           0       -0.425739   -1.218622   -0.000005
     10          1           0        0.154707    2.144805    0.000008
     11          1           0       -2.365704    2.158702    0.000010
     12          1           0       -3.606679    0.000114   -0.000000
     13          1           0       -2.365671   -2.158727   -0.000010
     14          1           0        0.154653   -2.144863   -0.000008
 ---------------------------------------------------------------------
 Rotational constants (GHZ):           3.9941102           1.2890008           0.9745037
 Leave Link  202 at Tue May 10 16:43:19 2022, MaxMem=  6442450944 cpu:               0.1 elap:               0.0
 (Enter /home1/apps/gaussian/16rA.03/g16/l601.exe)
 Copying SCF densities to generalized density rwf, IOpCl= 0 IROHF=0.

 **********************************************************************

            Population analysis using the SCF density.

 **********************************************************************

 Orbital symmetries:
       Occupied  (A) (A) (A) (A) (A) (A) (A) (A) (A) (A) (A) (A)
                 (A) (A) (A) (A) (A) (A) (A) (A) (A) (A) (A) (A)
                 (A) (A) (A) (A) (A) (A) (A) (A)
       Virtual   (A) (A) (A) (A) (A) (A) (A) (A) (A) (A) (A) (A)
                 (A) (A) (A) (A) (A) (A) (A) (A) (A) (A) (A) (A)
                 (A) (A) (A) (A) (A) (A) (A) (A) (A) (A) (A) (A)
                 (A) (A) (A) (A) (A) (A) (A) (A) (A) (A) (A) (A)
                 (A) (A) (A) (A) (A) (A) (A) (A) (A) (A) (A) (A)
                 (A) (A) (A) (A) (A) (A) (A) (A) (A) (A) (A) (A)
                 (A) (A) (A) (A) (A) (A) (A) (A) (A) (A) (A) (A)
                 (A) (A) (A) (A) (A) (A) (A) (A) (A) (A) (A) (A)
                 (A) (A) (A) (A) (A) (A) (A) (A) (A) (A) (A) (A)
                 (A) (A) (A) (A) (A) (A) (A) (A) (A) (A) (A)
 The electronic state is 1-A.
 Alpha  occ. eigenvalues --  -18.96138 -18.96134 -14.40889 -10.14219 -10.11243
 Alpha  occ. eigenvalues --  -10.11240 -10.11097 -10.10893 -10.10892  -1.32475
 Alpha  occ. eigenvalues --   -1.14937  -0.99949  -0.91294  -0.87876  -0.80341
 Alpha  occ. eigenvalues --   -0.73788  -0.69784  -0.66564  -0.66026  -0.61425
 Alpha  occ. eigenvalues --   -0.61337  -0.57871  -0.56661  -0.55109  -0.51299
 Alpha  occ. eigenvalues --   -0.48782  -0.46826  -0.41223  -0.40750  -0.39219
 Alpha  occ. eigenvalues --   -0.38216  -0.37874
 Alpha virt. eigenvalues --   -0.01138   0.04134   0.07936   0.13210   0.17527
 Alpha virt. eigenvalues --    0.18739   0.22591   0.22844   0.22853   0.25647
 Alpha virt. eigenvalues --    0.34177   0.35251   0.35652   0.35935   0.38610
 Alpha virt. eigenvalues --    0.42770   0.45387   0.48382   0.48538   0.51145
 Alpha virt. eigenvalues --    0.53522   0.53942   0.56081   0.57311   0.58386
 Alpha virt. eigenvalues --    0.60852   0.60997   0.67186   0.67376   0.68203
 Alpha virt. eigenvalues --    0.70944   0.71267   0.74076   0.74169   0.76018
 Alpha virt. eigenvalues --    0.79533   0.80089   0.80635   0.81295   0.84396
 Alpha virt. eigenvalues --    0.86533   0.88345   0.91381   0.96406   1.01596
 Alpha virt. eigenvalues --    1.01639   1.07110   1.07899   1.10591   1.11267
 Alpha virt. eigenvalues --    1.15710   1.25121   1.26925   1.27068   1.30346
 Alpha virt. eigenvalues --    1.30638   1.31753   1.34147   1.35315   1.36624
 Alpha virt. eigenvalues --    1.42810   1.46844   1.49480   1.56350   1.59347
 Alpha virt. eigenvalues --    1.71590   1.74010   1.75018   1.79566   1.80851
 Alpha virt. eigenvalues --    1.81439   1.82116   1.83072   1.84458   1.85174
 Alpha virt. eigenvalues --    1.85514   1.96401   2.00129   2.00483   2.03867
 Alpha virt. eigenvalues --    2.04301   2.06184   2.12943   2.16505   2.19595
 Alpha virt. eigenvalues --    2.19770   2.20547   2.34656   2.35429   2.36312
 Alpha virt. eigenvalues --    2.36455   2.39718   2.40990   2.45098   2.45706
 Alpha virt. eigenvalues --    2.59721   2.62209   2.67195   2.67492   2.69798
 Alpha virt. eigenvalues --    2.71887   2.72165   2.75970   2.77859   2.78316
 Alpha virt. eigenvalues --    2.82149   2.82934   2.92963   2.94893   3.09912
 Alpha virt. eigenvalues --    3.12074   3.13884   3.22174   3.36734   3.37837
 Alpha virt. eigenvalues --    3.46872   3.68750   3.83830   3.85927
          Condensed to atoms (all electrons):
               1          2          3          4          5          6
     1  O    8.044120   0.350982  -0.107650  -0.118082   0.005497   0.000007
     2  N    0.350982   5.943757   0.350984   0.271208  -0.055400   0.006264
     3  O   -0.107650   0.350984   8.044118  -0.118091   0.018122   0.002178
     4  C   -0.118082   0.271208  -0.118091   5.289795   0.293557   0.103738
     5  C    0.005497  -0.055400   0.018122   0.293557   5.147981   0.249360
     6  C    0.000007   0.006264   0.002178   0.103738   0.249360   5.075468
     7  C   -0.000032  -0.000376  -0.000032  -0.151719   0.078082   0.295776
     8  C    0.002178   0.006263   0.000007   0.103751  -0.136588   0.090207
     9  C    0.018126  -0.055401   0.005498   0.293501   0.022128  -0.136585
    10  H    0.000503  -0.015309   0.023866  -0.052617   0.435242  -0.056852
    11  H    0.000002  -0.000104  -0.000014   0.013050  -0.062062   0.445425
    12  H    0.000000   0.000009   0.000000  -0.001831   0.012945  -0.063577
    13  H   -0.000014  -0.000104   0.000002   0.013052  -0.001396   0.012041
    14  H    0.023861  -0.015305   0.000503  -0.052628   0.013937  -0.002343
               7          8          9         10         11         12
     1  O   -0.000032   0.002178   0.018126   0.000503   0.000002   0.000000
     2  N   -0.000376   0.006263  -0.055401  -0.015309  -0.000104   0.000009
     3  O   -0.000032   0.000007   0.005498   0.023866  -0.000014   0.000000
     4  C   -0.151719   0.103751   0.293501  -0.052617   0.013050  -0.001831
     5  C    0.078082  -0.136588   0.022128   0.435242  -0.062062   0.012945
     6  C    0.295776   0.090207  -0.136585  -0.056852   0.445425  -0.063577
     7  C    5.041500   0.295695   0.078091   0.011718  -0.063717   0.445165
     8  C    0.295695   5.075504   0.249376  -0.002343   0.012042  -0.063593
     9  C    0.078091   0.249376   5.148009   0.013938  -0.001396   0.012943
    10  H    0.011718  -0.002343   0.013938   0.610227  -0.010170  -0.000135
    11  H   -0.063717   0.012042  -0.001396  -0.010170   0.647294  -0.011232
    12  H    0.445165  -0.063593   0.012943  -0.000135  -0.011232   0.650671
    13  H   -0.063728   0.445431  -0.062058   0.000020  -0.000196  -0.011227
    14  H    0.011720  -0.056849   0.435246  -0.000182   0.000020  -0.000135
              13         14
     1  O   -0.000014   0.023861
     2  N   -0.000104  -0.015305
     3  O    0.000002   0.000503
     4  C    0.013052  -0.052628
     5  C   -0.001396   0.013937
     6  C    0.012041  -0.002343
     7  C   -0.063728   0.011720
     8  C    0.445431  -0.056849
     9  C   -0.062058   0.435246
    10  H    0.000020  -0.000182
    11  H   -0.000196   0.000020
    12  H   -0.011227  -0.000135
    13  H    0.647294  -0.010172
    14  H   -0.010172   0.610239
 Mulliken charges:
               1
     1  O   -0.219496
     2  N    0.212534
     3  O   -0.219491
     4  C    0.113314
     5  C   -0.021405
     6  C   -0.021107
     7  C    0.021856
     8  C   -0.021080
     9  C   -0.021417
    10  H    0.042093
    11  H    0.031058
    12  H    0.029996
    13  H    0.031056
    14  H    0.042089
 Sum of Mulliken charges =  -0.00000
 Mulliken charges with hydrogens summed into heavy atoms:
               1
     1  O   -0.219496
     2  N    0.212534
     3  O   -0.219491
     4  C    0.113314
     5  C    0.020688
     6  C    0.009952
     7  C    0.051852
     8  C    0.009976
     9  C    0.020672
 Electronic spatial extent (au):  <R**2>=           1116.9370
 Charge=             -0.0000 electrons
 Dipole moment (field-independent basis, Debye):
    X=             -4.2077    Y=              0.0000    Z=             -0.0000  Tot=              4.2077
 Quadrupole moment (field-independent basis, Debye-Ang):
   XX=            -53.9147   YY=            -47.5391   ZZ=            -52.1119
   XY=             -0.0002   XZ=             -0.0000   YZ=              0.0001
 Traceless Quadrupole moment (field-independent basis, Debye-Ang):
   XX=             -2.7261   YY=              3.6494   ZZ=             -0.9233
   XY=             -0.0002   XZ=             -0.0000   YZ=              0.0001
 Octapole moment (field-independent basis, Debye-Ang**2):
  XXX=            -23.3108  YYY=             -0.0007  ZZZ=             -0.0000  XYY=             -6.7070
  XXY=              0.0023  XXZ=             -0.0000  XZZ=             13.6256  YZZ=              0.0001
  YYZ=              0.0000  XYZ=              0.0001
 Hexadecapole moment (field-independent basis, Debye-Ang**3):
 XXXX=           -976.4419 YYYY=           -344.3980 ZZZZ=            -50.6711 XXXY=             -0.0050
 XXXZ=             -0.0000 YYYX=              0.0005 YYYZ=              0.0002 ZZZX=             -0.0000
 ZZZY=             -0.0001 XXYY=           -228.3749 XXZZ=           -176.7147 YYZZ=            -75.7193
 XXYZ=              0.0004 YYXZ=              0.0000 ZZXY=              0.0000
 N-N= 4.130693486772D+02 E-N=-1.842879670007D+03  KE= 4.321403026739D+02
 No NMR shielding tensors so no spin-rotation constants.
 Leave Link  601 at Tue May 10 16:43:19 2022, MaxMem=  6442450944 cpu:               1.5 elap:               0.1
 (Enter /home1/apps/gaussian/16rA.03/g16/l9999.exe)

 Test job not archived.
 1\1\GINC-C482-092\FOpt\RLC-wHPBE\def2SVP\C6H5N1O2\TG878040\10-May-2022
 \0\\#P LC-wHPBE/Def2SVP iop(3/107=0319800000, 3/108=0319800000) opt sc
 f(maxcyc=512)\\H5 C6 N1 O2\\0,1\O,2.8897967916,-1.0555253953,-0.194512
 3492\N,2.3293262299,0.0109939469,-0.058043246\O,2.885703138,1.08282755
 19,0.050604196\C,0.8488178808,0.0039827927,-0.0211531044\C,0.179023564
 7,1.2115164166,0.134278518\C,-1.212614083,1.197045245,0.1680498764\C,-
 1.9036440338,-0.0089902533,0.0474343529\C,-1.208133101,-1.2084836015,-
 0.1077311437\C,0.1835172555,-1.2098345133,-0.1433152212\H,0.7575522476
 ,2.1344373422,0.2253128054\H,-1.7620746185,2.1363530357,0.2896807351\H
 ,-2.9986559807,-0.0140389751,0.0747334279\H,-1.7540520607,-2.152972483
 9,-0.2020688323\H,0.7654367696,-2.1273081085,-0.263269015\\Version=ES6
 4L-G16RevA.03\State=1-A\HF=-436.1183279\RMSD=8.434e-09\RMSF=1.033e-05\
 Dipole=-1.6549079,-0.007808,0.0412363\Quadrupole=-2.0259411,2.6691161,
 -0.643175,-0.0127254,0.0326393,0.3849217\PG=C01 [X(C6H5N1O2)]\\@


 If your ship doesn't come in, swim out to it!
                          -- Jonathan Winters
 Job cpu time:       0 days  0 hours 23 minutes 37.1 seconds.
 Elapsed time:       0 days  0 hours  1 minutes 31.1 seconds.
 File lengths (MBytes):  RWF=     21 Int=      0 D2E=      0 Chk=      3 Scr=      1
 Normal termination of Gaussian 16 at Tue May 10 16:43:19 2022.
