 Entering Gaussian System, Link 0=g16
 Input=/work/08504/tg878040/stampede2/d3tales/runfiles//06CCVA/gaussian/tddft/energy/singlet_triplet_groundState.com
 Output=/work/08504/tg878040/stampede2/d3tales/runfiles//06CCVA/gaussian/tddft/energy/singlet_triplet_groundState.log
 Initial command:
 /home1/apps/gaussian/16rA.03/g16/l1.exe "/tmp/Gau-141064.inp" -scrdir="/tmp/"
 Entering Link 1 = /home1/apps/gaussian/16rA.03/g16/l1.exe PID=    141065.
  
 Copyright (c) 1988,1990,1992,1993,1995,1998,2003,2009,2016,
            Gaussian, Inc.  All Rights Reserved.
  
 This is part of the Gaussian(R) 16 program.  It is based on
 the Gaussian(R) 09 system (copyright 2009, Gaussian, Inc.),
 the Gaussian(R) 03 system (copyright 2003, Gaussian, Inc.),
 the Gaussian(R) 98 system (copyright 1998, Gaussian, Inc.),
 the Gaussian(R) 94 system (copyright 1995, Gaussian, Inc.),
 the Gaussian 92(TM) system (copyright 1992, Gaussian, Inc.),
 the Gaussian 90(TM) system (copyright 1990, Gaussian, Inc.),
 the Gaussian 88(TM) system (copyright 1988, Gaussian, Inc.),
 the Gaussian 86(TM) system (copyright 1986, Carnegie Mellon
 University), and the Gaussian 82(TM) system (copyright 1983,
 Carnegie Mellon University). Gaussian is a federally registered
 trademark of Gaussian, Inc.
  
 This software contains proprietary and confidential information,
 including trade secrets, belonging to Gaussian, Inc.
  
 This software is provided under written license and may be
 used, copied, transmitted, or stored only in accord with that
 written license.
  
 The following legend is applicable only to US Government
 contracts under FAR:
  
                    RESTRICTED RIGHTS LEGEND
  
 Use, reproduction and disclosure by the US Government is
 subject to restrictions as set forth in subparagraphs (a)
 and (c) of the Commercial Computer Software - Restricted
 Rights clause in FAR 52.227-19.
  
 Gaussian, Inc.
 340 Quinnipiac St., Bldg. 40, Wallingford CT 06492
  
  
 ---------------------------------------------------------------
 Warning -- This program may not be used in any manner that
 competes with the business of Gaussian, Inc. or will provide
 assistance to any competitor of Gaussian, Inc.  The licensee
 of this program is prohibited from giving any competitor of
 Gaussian, Inc. access to this program.  By using this program,
 the user acknowledges that Gaussian, Inc. is engaged in the
 business of creating and licensing software in the field of
 computational chemistry and represents and warrants to the
 licensee that it is not a competitor of Gaussian, Inc. and that
 it will not use this program in any manner prohibited above.
 ---------------------------------------------------------------
  

 Cite this work as:
 Gaussian 16, Revision A.03,
 M. J. Frisch, G. W. Trucks, H. B. Schlegel, G. E. Scuseria, 
 M. A. Robb, J. R. Cheeseman, G. Scalmani, V. Barone, 
 G. A. Petersson, H. Nakatsuji, X. Li, M. Caricato, A. V. Marenich, 
 J. Bloino, B. G. Janesko, R. Gomperts, B. Mennucci, H. P. Hratchian, 
 J. V. Ortiz, A. F. Izmaylov, J. L. Sonnenberg, D. Williams-Young, 
 F. Ding, F. Lipparini, F. Egidi, J. Goings, B. Peng, A. Petrone, 
 T. Henderson, D. Ranasinghe, V. G. Zakrzewski, J. Gao, N. Rega, 
 G. Zheng, W. Liang, M. Hada, M. Ehara, K. Toyota, R. Fukuda, 
 J. Hasegawa, M. Ishida, T. Nakajima, Y. Honda, O. Kitao, H. Nakai, 
 T. Vreven, K. Throssell, J. A. Montgomery, Jr., J. E. Peralta, 
 F. Ogliaro, M. J. Bearpark, J. J. Heyd, E. N. Brothers, K. N. Kudin, 
 V. N. Staroverov, T. A. Keith, R. Kobayashi, J. Normand, 
 K. Raghavachari, A. P. Rendell, J. C. Burant, S. S. Iyengar, 
 J. Tomasi, M. Cossi, J. M. Millam, M. Klene, C. Adamo, R. Cammi, 
 J. W. Ochterski, R. L. Martin, K. Morokuma, O. Farkas, 
 J. B. Foresman, and D. J. Fox, Gaussian, Inc., Wallingford CT, 2016.
 
 ******************************************
 Gaussian 16:  ES64L-G16RevA.03 25-Dec-2016
                10-May-2022 
 ******************************************
 %chk=/work/08504/tg878040/stampede2/d3tales/runfiles//06CCVA/gaussian/tddft/ener
 gy/singlet_triplet_groundState.chk
 %mem=48GB
 %nprocshared=16
 Will use up to   16 processors via shared memory.
 ----------------------------------------------------------------------
 #P LC-wHPBE/Def2SVP iop(3/107=0156500000, 3/108=0156500000) td=(50-50,
 nstates=15)
 ----------------------------------------------------------------------
 1/38=1,172=1/1;
 2/12=2,17=6,18=5,40=1/2;
 3/5=43,7=101,11=9,25=1,30=1,74=-71,107=156500000,108=156500000/1,2,3,8;
 4//1;
 5/5=2,38=5/2;
 8/6=1,10=1,108=15/1;
 9/41=15,42=1,48=2,70=2/14;
 6/7=2,8=2,9=2,10=2/1;
 99/5=1,9=1/99;
 Leave Link    1 at Tue May 10 16:55:54 2022, MaxMem=  6442450944 cpu:               0.6 elap:               0.0
 (Enter /home1/apps/gaussian/16rA.03/g16/l101.exe)
 -------
 H10 C14
 -------
 Symbolic Z-matrix:
 Charge =  0 Multiplicity = 1
 C                     3.67666  -0.71494   0. 
 C                     3.67669   0.71483   0. 
 C                     2.48946   1.41188   0. 
 C                     1.22928   0.72405   0. 
 C                     0.        1.40828   0. 
 C                    -1.2294    0.72408   0. 
 C                    -2.48942   1.41191   0. 
 C                    -3.67668   0.71472   0. 
 C                    -3.67668  -0.71484   0. 
 C                    -2.48929  -1.41184   0. 
 C                    -1.22926  -0.72401   0. 
 C                     0.00005  -1.40833   0. 
 C                     1.22928  -0.72386   0. 
 C                     2.48935  -1.41189   0. 
 H                     4.63402  -1.25656   0. 
 H                     4.63403   1.25649   0. 
 H                     2.48686   2.51248   0. 
 H                    -0.00002   2.50955   0. 
 H                    -2.48699   2.51248   0. 
 H                    -4.634     1.25647   0. 
 H                    -4.63391  -1.25667   0. 
 H                    -2.48701  -2.51245  0. 
 H                    -0.00005  -2.50955   0. 
 H                     2.48675  -2.51249   0. 
 
 ITRead=  0  0  0  0  0  0  0  0  0  0  0  0  0  0  0  0  0  0  0  0
 ITRead=  0  0  0  0
 MicOpt= -1 -1 -1 -1 -1 -1 -1 -1 -1 -1 -1 -1 -1 -1 -1 -1 -1 -1 -1 -1
 MicOpt= -1 -1 -1 -1
 NAtoms=     24 NQM=       24 NQMF=       0 NMMI=      0 NMMIF=      0
                NMic=       0 NMicF=      0.
                    Isotopes and Nuclear Properties:
 (Nuclear quadrupole moments (NQMom) in fm**2, nuclear magnetic moments (NMagM)
  in nuclear magnetons)

  Atom         1           2           3           4           5           6           7           8           9          10
 IAtWgt=          12          12          12          12          12          12          12          12          12          12
 AtmWgt=  12.0000000  12.0000000  12.0000000  12.0000000  12.0000000  12.0000000  12.0000000  12.0000000  12.0000000  12.0000000
 NucSpn=           0           0           0           0           0           0           0           0           0           0
 AtZEff=  -0.0000000  -0.0000000  -0.0000000  -0.0000000  -0.0000000  -0.0000000  -0.0000000  -0.0000000  -0.0000000  -0.0000000
 NQMom=    0.0000000   0.0000000   0.0000000   0.0000000   0.0000000   0.0000000   0.0000000   0.0000000   0.0000000   0.0000000
 NMagM=    0.0000000   0.0000000   0.0000000   0.0000000   0.0000000   0.0000000   0.0000000   0.0000000   0.0000000   0.0000000
 AtZNuc=   6.0000000   6.0000000   6.0000000   6.0000000   6.0000000   6.0000000   6.0000000   6.0000000   6.0000000   6.0000000

  Atom        11          12          13          14          15          16          17          18          19          20
 IAtWgt=          12          12          12          12           1           1           1           1           1           1
 AtmWgt=  12.0000000  12.0000000  12.0000000  12.0000000   1.0078250   1.0078250   1.0078250   1.0078250   1.0078250   1.0078250
 NucSpn=           0           0           0           0           1           1           1           1           1           1
 AtZEff=  -0.0000000  -0.0000000  -0.0000000  -0.0000000  -0.0000000  -0.0000000  -0.0000000  -0.0000000  -0.0000000  -0.0000000
 NQMom=    0.0000000   0.0000000   0.0000000   0.0000000   0.0000000   0.0000000   0.0000000   0.0000000   0.0000000   0.0000000
 NMagM=    0.0000000   0.0000000   0.0000000   0.0000000   2.7928460   2.7928460   2.7928460   2.7928460   2.7928460   2.7928460
 AtZNuc=   6.0000000   6.0000000   6.0000000   6.0000000   1.0000000   1.0000000   1.0000000   1.0000000   1.0000000   1.0000000

  Atom        21          22          23          24
 IAtWgt=           1           1           1           1
 AtmWgt=   1.0078250   1.0078250   1.0078250   1.0078250
 NucSpn=           1           1           1           1
 AtZEff=  -0.0000000  -0.0000000  -0.0000000  -0.0000000
 NQMom=    0.0000000   0.0000000   0.0000000   0.0000000
 NMagM=    2.7928460   2.7928460   2.7928460   2.7928460
 AtZNuc=   1.0000000   1.0000000   1.0000000   1.0000000
 Leave Link  101 at Tue May 10 16:55:54 2022, MaxMem=  6442450944 cpu:               1.6 elap:               0.1
 (Enter /home1/apps/gaussian/16rA.03/g16/l202.exe)
                          Input orientation:                          
 ---------------------------------------------------------------------
 Center     Atomic      Atomic             Coordinates (Angstroms)
 Number     Number       Type             X           Y           Z
 ---------------------------------------------------------------------
      1          6           0        3.676656   -0.714935    0.000000
      2          6           0        3.676690    0.714834    0.000000
      3          6           0        2.489464    1.411883    0.000000
      4          6           0        1.229278    0.724045    0.000000
      5          6           0        0.000004    1.408277    0.000000
      6          6           0       -1.229396    0.724084    0.000000
      7          6           0       -2.489417    1.411907    0.000000
      8          6           0       -3.676677    0.714716    0.000000
      9          6           0       -3.676682   -0.714835    0.000000
     10          6           0       -2.489285   -1.411843    0.000000
     11          6           0       -1.229259   -0.724008    0.000000
     12          6           0        0.000048   -1.408328    0.000000
     13          6           0        1.229279   -0.723861    0.000000
     14          6           0        2.489347   -1.411893    0.000000
     15          1           0        4.634018   -1.256556    0.000000
     16          1           0        4.634033    1.256485    0.000000
     17          1           0        2.486862    2.512482    0.000000
     18          1           0       -0.000015    2.509553    0.000000
     19          1           0       -2.486992    2.512476    0.000000
     20          1           0       -4.633997    1.256467    0.000000
     21          1           0       -4.633907   -1.256670    0.000000
     22          1           0       -2.487009   -2.512449   -0.000001
     23          1           0       -0.000053   -2.509552    0.000000
     24          1           0        2.486753   -2.512488    0.000000
 ---------------------------------------------------------------------
                    Distance matrix (angstroms):
                    1          2          3          4          5
     1  C    0.000000
     2  C    1.429769   0.000000
     3  C    2.435730   1.376729   0.000000
     4  C    2.839071   2.447429   1.435684   0.000000
     5  C    4.245680   3.741508   2.489463   1.406872   0.000000
     6  C    5.112741   4.906095   3.781929   2.458674   1.406963
     7  C    6.522570   6.205384   4.978881   3.781778   2.489424
     8  C    7.491022   7.353367   6.205428   4.905964   3.741525
     9  C    7.353338   7.491064   6.522598   5.112614   4.245659
    10  C    6.205200   6.522423   5.723755   4.288325   3.761600
    11  C    4.905923   5.112592   4.288465   2.853290   2.461245
    12  C    3.741422   4.245646   3.761753   2.461305   2.816605
    13  C    2.447393   2.838955   2.479812   1.447906   2.461124
    14  C    1.376755   2.435724   2.823776   2.479920   3.761673
    15  H    1.099952   2.191542   3.423402   3.938913   5.345598
    16  H    2.191590   1.099951   2.150192   3.446135   4.636514
    17  H    3.439743   2.155743   1.100602   2.186327   2.720980
    18  H    4.890320   4.091354   2.720732   2.167764   1.101276
    19  H    6.957495   6.420474   5.096707   4.124215   2.721104
    20  H    8.541275   8.328318   7.125156   5.887399   4.636487
    21  H    8.328201   8.541244   7.606812   6.188713   5.345566
    22  H    6.420422   6.957481   6.337639   4.928051   4.642987
    23  H    4.091313   4.890307   4.644927   3.459394   3.917829
    24  H    2.155705   3.439703   3.924372   3.472231   4.642878
                    6          7          8          9         10
     6  C    0.000000
     7  C    1.435532   0.000000
     8  C    2.447299   1.376830   0.000000
     9  C    2.838960   2.435699   1.429551   0.000000
    10  C    2.479819   2.823750   2.435601   1.376856   0.000000
    11  C    1.448092   2.479946   2.838975   2.447440   1.435543
    12  C    2.461445   3.761803   4.245659   3.741561   2.489335
    13  C    2.853354   4.288380   5.112525   4.905969   3.781671
    14  C    4.288525   5.723804   6.522447   6.205304   4.978632
    15  H    6.188906   7.606840   8.541286   8.328337   7.124995
    16  H    5.887550   7.125145   8.328350   8.541316   7.606683
    17  H    4.124190   5.096530   6.420372   6.957359   6.337378
    18  H    2.167782   2.720652   4.091367   4.890251   4.644762
    19  H    2.186297   1.100572   2.155758   3.439607   3.924320
    20  H    3.445974   2.150206   1.099980   2.191457   3.423400
    21  H    3.938792   3.423469   2.191495   1.099939   2.150228
    22  H    3.472281   3.924357   3.439463   2.155629   1.100608
    23  H    3.459434   4.644865   4.890140   4.091285   2.720522
    24  H    4.927998   6.337440   6.957206   6.420240   5.096310
                   11         12         13         14         15
    11  C    0.000000
    12  C    1.406943   0.000000
    13  C    2.458538   1.406948   0.000000
    14  C    3.781695   2.489302   1.435674   0.000000
    15  H    5.887412   4.636455   3.446159   2.150289   0.000000
    16  H    6.188743   5.345563   3.938797   3.423437   2.513041
    17  H    4.927923   4.642951   3.472093   3.924376   4.337733
    18  H    3.459329   3.917881   3.459209   4.644853   5.971418
    19  H    3.472279   4.643067   4.927935   6.337556   8.056946
    20  H    3.938848   5.345606   6.188675   7.606719   9.602676
    21  H    3.446064   4.636436   5.887345   7.124945   9.267925
    22  H    2.186425   2.721128   4.124299   5.096601   7.230926
    23  H    2.167744   1.101224   2.167937   2.720656   4.800480
    24  H    4.124004   2.720822   2.186419   1.100598   2.487592
                   16         17         18         19         20
    16  H    0.000000
    17  H    2.487543   0.000000
    18  H    4.800477   2.486879   0.000000
    19  H    7.230941   4.973854   2.486979   0.000000
    20  H    9.268030   7.230782   4.800418   2.487406   0.000000
    21  H    9.602638   8.056790   5.971381   4.337707   2.513137
    22  H    8.056929   7.070313   5.604074   5.024925   4.337544
    23  H    5.971414   5.604067   5.019105   5.604073   5.971293
    24  H    4.337738   5.024970   5.604008   7.070248   8.056681
                   21         22         23         24
    21  H    0.000000
    22  H    2.487198   0.000000
    23  H    4.800241   2.486958   0.000000
    24  H    7.230552   4.973762   2.486808   0.000000
 Stoichiometry    C14H10
 Framework group  C1[X(C14H10)]
 Deg. of freedom    66
 Full point group                 C1      NOp   1
 Largest Abelian subgroup         C1      NOp   1
 Largest concise Abelian subgroup C1      NOp   1
                         Standard orientation:                         
 ---------------------------------------------------------------------
 Center     Atomic      Atomic             Coordinates (Angstroms)
 Number     Number       Type             X           Y           Z
 ---------------------------------------------------------------------
      1          6           0        3.676656   -0.714935    0.000000
      2          6           0        3.676690    0.714834    0.000000
      3          6           0        2.489464    1.411883    0.000000
      4          6           0        1.229278    0.724045    0.000000
      5          6           0        0.000004    1.408277    0.000000
      6          6           0       -1.229396    0.724084    0.000000
      7          6           0       -2.489417    1.411907    0.000000
      8          6           0       -3.676677    0.714716    0.000000
      9          6           0       -3.676682   -0.714835    0.000000
     10          6           0       -2.489285   -1.411843    0.000000
     11          6           0       -1.229259   -0.724008    0.000000
     12          6           0        0.000048   -1.408328    0.000000
     13          6           0        1.229279   -0.723861    0.000000
     14          6           0        2.489347   -1.411893    0.000000
     15          1           0        4.634018   -1.256556    0.000000
     16          1           0        4.634033    1.256485    0.000000
     17          1           0        2.486862    2.512482    0.000000
     18          1           0       -0.000015    2.509553    0.000000
     19          1           0       -2.486992    2.512476    0.000000
     20          1           0       -4.633997    1.256467    0.000000
     21          1           0       -4.633907   -1.256670    0.000000
     22          1           0       -2.487009   -2.512449   -0.000001
     23          1           0       -0.000053   -2.509552    0.000000
     24          1           0        2.486753   -2.512488    0.000000
 ---------------------------------------------------------------------
 Rotational constants (GHZ):           2.1281109           0.4470978           0.3694744
 Leave Link  202 at Tue May 10 16:55:54 2022, MaxMem=  6442450944 cpu:               0.3 elap:               0.0
 (Enter /home1/apps/gaussian/16rA.03/g16/l301.exe)
 Standard basis: def2SVP (5D, 7F)
 Ernie: Thresh=  0.10000D-02 Tol=  0.10000D-05 Strict=F.
 There are   260 symmetry adapted cartesian basis functions of A   symmetry.
 There are   246 symmetry adapted basis functions of A   symmetry.
   246 basis functions,   420 primitive gaussians,   260 cartesian basis functions
    47 alpha electrons       47 beta electrons
       nuclear repulsion energy       761.7899870515 Hartrees.
 IExCor=33909 DFT=T Ex+Corr=LC-wHPBE ExCW=0 ScaHFX=  1.000000
 ScaDFX=  1.000000  1.000000  1.000000  1.000000 ScalE2=  1.000000  1.000000
 IRadAn=      5 IRanWt=     -1 IRanGd=            0 ICorTp=0 IEmpDi=  4
 HFx  wShort=  0.000000 wLong=  0.156500 cFull=  0.000000 cShort=  0.000000 cLong=  1.000000
 DFx  wShort=  0.000000 wLong=  0.156500 cFull=  0.000000 cShort=  1.000000 cLong=  0.000000
 NAtoms=   24 NActive=   24 NUniq=   24 SFac= 1.00D+00 NAtFMM=   60 NAOKFM=F Big=F
 Integral buffers will be    131072 words long.
 Raffenetti 1 integral format.
 Two-electron integral symmetry is turned on.
 Leave Link  301 at Tue May 10 16:55:54 2022, MaxMem=  6442450944 cpu:               1.0 elap:               0.1
 (Enter /home1/apps/gaussian/16rA.03/g16/l302.exe)
 NPDir=0 NMtPBC=     1 NCelOv=     1 NCel=       1 NClECP=     1 NCelD=      1
         NCelK=      1 NCelE2=     1 NClLst=     1 CellRange=     0.0.
 One-electron integrals computed using PRISM.
 One-electron integral symmetry used in STVInt
   1 Symmetry operations used in ECPInt.
 ECPInt:  NShTT=    6555 NPrTT=   24083 LenC2=    6222 LenP2D=   16954.
 LDataN:  DoStor=T MaxTD1= 4 Len=   56
 NBasis=   246 RedAO= T EigKep=  2.65D-04  NBF=   246
 NBsUse=   246 1.00D-06 EigRej= -1.00D+00 NBFU=   246
 Precomputing XC quadrature grid using
 IXCGrd= 4 IRadAn=           5 IRanWt=          -1 IRanGd=           0 AccXCQ= 0.00D+00.
 Generated NRdTot=       0 NPtTot=           0 NUsed=           0 NTot=          32
 NSgBfM=   259   259   259   259   259 MxSgAt=    24 MxSgA2=    24.
 Leave Link  302 at Tue May 10 16:55:54 2022, MaxMem=  6442450944 cpu:               4.5 elap:               0.3
 (Enter /home1/apps/gaussian/16rA.03/g16/l303.exe)
 DipDrv:  MaxL=1.
 Leave Link  303 at Tue May 10 16:55:54 2022, MaxMem=  6442450944 cpu:               0.7 elap:               0.1
 (Enter /home1/apps/gaussian/16rA.03/g16/l308.exe)
 Leave Link  308 at Tue May 10 16:55:54 2022, MaxMem=  6442450944 cpu:               0.9 elap:               0.1
 (Enter /home1/apps/gaussian/16rA.03/g16/l401.exe)
 ExpMin= 1.22D-01 ExpMax= 1.24D+03 ExpMxC= 1.86D+02 IAcc=3 IRadAn=         5 AccDes= 0.00D+00
 Harris functional with IExCor=33909 and IRadAn=       5 diagonalized for initial guess.
 HarFok:  IExCor=33909 AccDes= 0.00D+00 IRadAn=         5 IDoV= 1 UseB2=F ITyADJ=14
 ICtDFT=  3500011 ScaDFX=  1.000000  1.000000  1.000000  1.000000
 FoFCou: FMM=F IPFlag=           0 FMFlag=      100000 FMFlg1=           0
         NFxFlg=           0 DoJE=T BraDBF=F KetDBF=T FulRan=T
         wScrn=  0.000000 ICntrl=       500 IOpCl=  0 I1Cent=   200000004 NGrid=           0
         NMat0=    1 NMatS0=      1 NMatT0=    0 NMatD0=    1 NMtDS0=    0 NMtDT0=    0
 Petite list used in FoFCou.
 Harris En= -530.703753419118    
 JPrj=0 DoOrth=F DoCkMO=F.
 Leave Link  401 at Tue May 10 16:55:55 2022, MaxMem=  6442450944 cpu:              13.6 elap:               0.9
 (Enter /home1/apps/gaussian/16rA.03/g16/l502.exe)
 Integral symmetry usage will be decided dynamically.
 Closed shell SCF:
 Using DIIS extrapolation, IDIIS=  1040.
 NGot=  6442450944 LenX=  6442308796 LenY=  6442240755
 Requested convergence on RMS density matrix=1.00D-08 within 128 cycles.
 Requested convergence on MAX density matrix=1.00D-06.
 Requested convergence on             energy=1.00D-06.
 No special actions if energy rises.
 Fock matrices will be formed incrementally for  20 cycles.
 Integral accuracy reduced to 1.0D-05 until final iterations.

 Cycle   1  Pass 0  IDiag  1:
 FoFJK:  IHMeth= 1 ICntrl=       0 DoSepK=T KAlg= 0 I1Cent=           0 FoldK=F
 IRaf=         1 NMat=       1 IRICut=       1 DoRegI=T DoRafI=F ISym2E= 0 IDoP0=0 IntGTp=1.
 FoFCou: FMM=F IPFlag=           0 FMFlag=      100000 FMFlg1=           0
         NFxFlg=           0 DoJE=T BraDBF=F KetDBF=F FulRan=T
         wScrn=  0.000000 ICntrl=       500 IOpCl=  0 I1Cent=           0 NGrid=           0
         NMat0=    1 NMatS0=      1 NMatT0=    0 NMatD0=    1 NMtDS0=    0 NMtDT0=    0
 Symmetry not used in FoFCou.
 E= -538.430868886552    
 DIIS: error= 3.10D-02 at cycle   1 NSaved=   1.
 NSaved= 1 IEnMin= 1 EnMin= -538.430868886552     IErMin= 1 ErrMin= 3.10D-02
 ErrMax= 3.10D-02  0.00D+00 EMaxC= 1.00D-01 BMatC= 1.36D-01 BMatP= 1.36D-01
 IDIUse=3 WtCom= 6.90D-01 WtEn= 3.10D-01
 Coeff-Com:  0.100D+01
 Coeff-En:   0.100D+01
 Coeff:      0.100D+01
 Gap=     0.220 Goal=   None    Shift=    0.000
 GapD=    0.220 DampG=1.000 DampE=0.500 DampFc=0.5000 IDamp=-1.
 Damping current iteration by 5.00D-01
 RMSDP=3.99D-03 MaxDP=7.22D-02              OVMax= 1.10D-01

 Cycle   2  Pass 0  IDiag  1:
 RMSU=  1.82D-03    CP:  9.64D-01
 E= -538.523577111371     Delta-E=       -0.092708224818 Rises=F Damp=T
 DIIS: error= 5.55D-03 at cycle   2 NSaved=   2.
 NSaved= 2 IEnMin= 2 EnMin= -538.523577111371     IErMin= 2 ErrMin= 5.55D-03
 ErrMax= 5.55D-03  0.00D+00 EMaxC= 1.00D-01 BMatC= 5.94D-03 BMatP= 1.36D-01
 IDIUse=3 WtCom= 9.44D-01 WtEn= 5.55D-02
 Coeff-Com: -0.126D+00 0.113D+01
 Coeff-En:   0.000D+00 0.100D+01
 Coeff:     -0.119D+00 0.112D+01
 Gap=     0.222 Goal=   None    Shift=    0.000
 RMSDP=9.37D-04 MaxDP=1.61D-02 DE=-9.27D-02 OVMax= 4.83D-02

 Cycle   3  Pass 0  IDiag  1:
 RMSU=  7.81D-04    CP:  9.53D-01  1.25D+00
 E= -538.605159102119     Delta-E=       -0.081581990748 Rises=F Damp=F
 DIIS: error= 1.88D-03 at cycle   3 NSaved=   3.
 NSaved= 3 IEnMin= 3 EnMin= -538.605159102119     IErMin= 3 ErrMin= 1.88D-03
 ErrMax= 1.88D-03  0.00D+00 EMaxC= 1.00D-01 BMatC= 8.54D-04 BMatP= 5.94D-03
 IDIUse=3 WtCom= 9.81D-01 WtEn= 1.88D-02
 Coeff-Com: -0.495D-01 0.307D+00 0.742D+00
 Coeff-En:   0.000D+00 0.000D+00 0.100D+01
 Coeff:     -0.486D-01 0.301D+00 0.747D+00
 Gap=     0.222 Goal=   None    Shift=    0.000
 RMSDP=2.37D-04 MaxDP=5.97D-03 DE=-8.16D-02 OVMax= 1.09D-02

 Cycle   4  Pass 0  IDiag  1:
 RMSU=  1.94D-04    CP:  9.53D-01  1.27D+00  8.29D-01
 E= -538.605654087004     Delta-E=       -0.000494984885 Rises=F Damp=F
 DIIS: error= 1.79D-03 at cycle   4 NSaved=   4.
 NSaved= 4 IEnMin= 4 EnMin= -538.605654087004     IErMin= 4 ErrMin= 1.79D-03
 ErrMax= 1.79D-03  0.00D+00 EMaxC= 1.00D-01 BMatC= 3.08D-04 BMatP= 8.54D-04
 IDIUse=3 WtCom= 9.82D-01 WtEn= 1.79D-02
 Coeff-Com: -0.164D-01 0.855D-01 0.393D+00 0.537D+00
 Coeff-En:   0.000D+00 0.000D+00 0.262D+00 0.738D+00
 Coeff:     -0.161D-01 0.840D-01 0.391D+00 0.541D+00
 Gap=     0.221 Goal=   None    Shift=    0.000
 RMSDP=9.47D-05 MaxDP=2.80D-03 DE=-4.95D-04 OVMax= 6.58D-03

 Cycle   5  Pass 0  IDiag  1:
 RMSU=  6.01D-05    CP:  9.53D-01  1.27D+00  8.51D-01  6.33D-01
 E= -538.605960416180     Delta-E=       -0.000306329176 Rises=F Damp=F
 DIIS: error= 3.84D-04 at cycle   5 NSaved=   5.
 NSaved= 5 IEnMin= 5 EnMin= -538.605960416180     IErMin= 5 ErrMin= 3.84D-04
 ErrMax= 3.84D-04  0.00D+00 EMaxC= 1.00D-01 BMatC= 1.50D-05 BMatP= 3.08D-04
 IDIUse=3 WtCom= 9.96D-01 WtEn= 3.84D-03
 Coeff-Com: -0.145D-02 0.577D-02 0.769D-01 0.222D+00 0.697D+00
 Coeff-En:   0.000D+00 0.000D+00 0.000D+00 0.000D+00 0.100D+01
 Coeff:     -0.145D-02 0.575D-02 0.766D-01 0.221D+00 0.698D+00
 Gap=     0.221 Goal=   None    Shift=    0.000
 RMSDP=2.76D-05 MaxDP=5.45D-04 DE=-3.06D-04 OVMax= 1.89D-03

 Cycle   6  Pass 0  IDiag  1:
 RMSU=  1.72D-05    CP:  9.53D-01  1.27D+00  8.64D-01  6.90D-01  7.49D-01
 E= -538.605976360680     Delta-E=       -0.000015944501 Rises=F Damp=F
 DIIS: error= 1.42D-04 at cycle   6 NSaved=   6.
 NSaved= 6 IEnMin= 6 EnMin= -538.605976360680     IErMin= 6 ErrMin= 1.42D-04
 ErrMax= 1.42D-04  0.00D+00 EMaxC= 1.00D-01 BMatC= 2.07D-06 BMatP= 1.50D-05
 IDIUse=3 WtCom= 9.99D-01 WtEn= 1.42D-03
 Coeff-Com:  0.463D-03-0.276D-02 0.170D-01 0.872D-01 0.374D+00 0.524D+00
 Coeff-En:   0.000D+00 0.000D+00 0.000D+00 0.000D+00 0.000D+00 0.100D+01
 Coeff:      0.463D-03-0.276D-02 0.170D-01 0.871D-01 0.373D+00 0.525D+00
 Gap=     0.221 Goal=   None    Shift=    0.000
 RMSDP=6.87D-06 MaxDP=1.59D-04 DE=-1.59D-05 OVMax= 5.51D-04

 Initial convergence to 1.0D-05 achieved.  Increase integral accuracy.
 Cycle   7  Pass 1  IDiag  1:
 E= -538.605974679627     Delta-E=        0.000001681053 Rises=F Damp=F
 DIIS: error= 2.50D-04 at cycle   1 NSaved=   1.
 NSaved= 1 IEnMin= 1 EnMin= -538.605974679627     IErMin= 1 ErrMin= 2.50D-04
 ErrMax= 2.50D-04  0.00D+00 EMaxC= 1.00D-01 BMatC= 1.49D-06 BMatP= 1.49D-06
 IDIUse=3 WtCom= 9.98D-01 WtEn= 2.50D-03
 Coeff-Com:  0.100D+01
 Coeff-En:   0.100D+01
 Coeff:      0.100D+01
 Gap=     0.222 Goal=   None    Shift=    0.000
 RMSDP=6.87D-06 MaxDP=1.59D-04 DE= 1.68D-06 OVMax= 3.50D-04

 Cycle   8  Pass 1  IDiag  1:
 RMSU=  1.96D-04    CP:  1.00D+00
 E= -538.605976149662     Delta-E=       -0.000001470035 Rises=F Damp=F
 DIIS: error= 2.81D-05 at cycle   2 NSaved=   2.
 NSaved= 2 IEnMin= 2 EnMin= -538.605976149662     IErMin= 2 ErrMin= 2.81D-05
 ErrMax= 2.81D-05  0.00D+00 EMaxC= 1.00D-01 BMatC= 8.24D-08 BMatP= 1.49D-06
 IDIUse=1 WtCom= 1.00D+00 WtEn= 0.00D+00
 Coeff-Com:  0.458D-01 0.954D+00
 Coeff:      0.458D-01 0.954D+00
 Gap=     0.222 Goal=   None    Shift=    0.000
 RMSDP=1.14D-05 MaxDP=2.71D-04 DE=-1.47D-06 OVMax= 2.13D-04

 Cycle   9  Pass 1  IDiag  1:
 RMSU=  3.48D-06    CP:  1.00D+00  1.06D+00
 E= -538.605976118200     Delta-E=        0.000000031463 Rises=F Damp=F
 DIIS: error= 3.18D-05 at cycle   3 NSaved=   3.
 NSaved= 3 IEnMin= 2 EnMin= -538.605976149662     IErMin= 2 ErrMin= 2.81D-05
 ErrMax= 3.18D-05  0.00D+00 EMaxC= 1.00D-01 BMatC= 1.28D-07 BMatP= 8.24D-08
 IDIUse=1 WtCom= 1.00D+00 WtEn= 0.00D+00
 Coeff-Com: -0.259D-01 0.567D+00 0.459D+00
 Coeff:     -0.259D-01 0.567D+00 0.459D+00
 Gap=     0.222 Goal=   None    Shift=    0.000
 RMSDP=1.94D-06 MaxDP=3.52D-05 DE= 3.15D-08 OVMax= 1.16D-04

 Cycle  10  Pass 1  IDiag  1:
 RMSU=  1.15D-06    CP:  1.00D+00  1.06D+00  6.50D-01
 E= -538.605976250498     Delta-E=       -0.000000132298 Rises=F Damp=F
 DIIS: error= 5.24D-06 at cycle   4 NSaved=   4.
 NSaved= 4 IEnMin= 4 EnMin= -538.605976250498     IErMin= 4 ErrMin= 5.24D-06
 ErrMax= 5.24D-06  0.00D+00 EMaxC= 1.00D-01 BMatC= 1.12D-09 BMatP= 8.24D-08
 IDIUse=1 WtCom= 1.00D+00 WtEn= 0.00D+00
 Coeff-Com: -0.101D-01 0.182D+00 0.167D+00 0.662D+00
 Coeff:     -0.101D-01 0.182D+00 0.167D+00 0.662D+00
 Gap=     0.222 Goal=   None    Shift=    0.000
 RMSDP=2.86D-07 MaxDP=5.60D-06 DE=-1.32D-07 OVMax= 2.41D-05

 Cycle  11  Pass 1  IDiag  1:
 RMSU=  2.34D-07    CP:  1.00D+00  1.06D+00  6.80D-01  1.03D+00
 E= -538.605976252207     Delta-E=       -0.000000001710 Rises=F Damp=F
 DIIS: error= 2.43D-06 at cycle   5 NSaved=   5.
 NSaved= 5 IEnMin= 5 EnMin= -538.605976252207     IErMin= 5 ErrMin= 2.43D-06
 ErrMax= 2.43D-06  0.00D+00 EMaxC= 1.00D-01 BMatC= 3.74D-10 BMatP= 1.12D-09
 IDIUse=1 WtCom= 1.00D+00 WtEn= 0.00D+00
 Coeff-Com:  0.335D-02-0.963D-01-0.648D-01 0.352D+00 0.805D+00
 Coeff:      0.335D-02-0.963D-01-0.648D-01 0.352D+00 0.805D+00
 Gap=     0.222 Goal=   None    Shift=    0.000
 RMSDP=1.88D-07 MaxDP=3.12D-06 DE=-1.71D-09 OVMax= 1.99D-05

 Cycle  12  Pass 1  IDiag  1:
 RMSU=  1.18D-07    CP:  1.00D+00  1.06D+00  6.93D-01  1.12D+00  8.94D-01
 E= -538.605976252987     Delta-E=       -0.000000000780 Rises=F Damp=F
 DIIS: error= 5.31D-07 at cycle   6 NSaved=   6.
 NSaved= 6 IEnMin= 6 EnMin= -538.605976252987     IErMin= 6 ErrMin= 5.31D-07
 ErrMax= 5.31D-07  0.00D+00 EMaxC= 1.00D-01 BMatC= 1.35D-11 BMatP= 3.74D-10
 IDIUse=1 WtCom= 1.00D+00 WtEn= 0.00D+00
 Coeff-Com:  0.188D-02-0.425D-01-0.326D-01 0.232D-01 0.183D+00 0.867D+00
 Coeff:      0.188D-02-0.425D-01-0.326D-01 0.232D-01 0.183D+00 0.867D+00
 Gap=     0.222 Goal=   None    Shift=    0.000
 RMSDP=4.84D-08 MaxDP=9.18D-07 DE=-7.80D-10 OVMax= 5.04D-06

 Cycle  13  Pass 1  IDiag  1:
 RMSU=  3.19D-08    CP:  1.00D+00  1.06D+00  6.96D-01  1.12D+00  9.60D-01
                    CP:  1.22D+00
 E= -538.605976253033     Delta-E=       -0.000000000045 Rises=F Damp=F
 DIIS: error= 1.26D-07 at cycle   7 NSaved=   7.
 NSaved= 7 IEnMin= 7 EnMin= -538.605976253033     IErMin= 7 ErrMin= 1.26D-07
 ErrMax= 1.26D-07  0.00D+00 EMaxC= 1.00D-01 BMatC= 1.19D-12 BMatP= 1.35D-11
 IDIUse=1 WtCom= 1.00D+00 WtEn= 0.00D+00
 Coeff-Com:  0.199D-03-0.279D-02-0.294D-02-0.222D-01-0.188D-01 0.200D+00
 Coeff-Com:  0.846D+00
 Coeff:      0.199D-03-0.279D-02-0.294D-02-0.222D-01-0.188D-01 0.200D+00
 Coeff:      0.846D+00
 Gap=     0.222 Goal=   None    Shift=    0.000
 RMSDP=1.82D-08 MaxDP=2.85D-07 DE=-4.55D-11 OVMax= 1.18D-06

 Cycle  14  Pass 1  IDiag  1:
 RMSU=  8.32D-09    CP:  1.00D+00  1.06D+00  6.95D-01  1.12D+00  9.72D-01
                    CP:  1.29D+00  1.05D+00
 E= -538.605976253036     Delta-E=       -0.000000000003 Rises=F Damp=F
 DIIS: error= 4.09D-08 at cycle   8 NSaved=   8.
 NSaved= 8 IEnMin= 8 EnMin= -538.605976253036     IErMin= 8 ErrMin= 4.09D-08
 ErrMax= 4.09D-08  0.00D+00 EMaxC= 1.00D-01 BMatC= 1.59D-13 BMatP= 1.19D-12
 IDIUse=1 WtCom= 1.00D+00 WtEn= 0.00D+00
 Coeff-Com: -0.144D-03 0.375D-02 0.261D-02-0.961D-02-0.240D-01-0.357D-01
 Coeff-Com:  0.248D+00 0.815D+00
 Coeff:     -0.144D-03 0.375D-02 0.261D-02-0.961D-02-0.240D-01-0.357D-01
 Coeff:      0.248D+00 0.815D+00
 Gap=     0.222 Goal=   None    Shift=    0.000
 RMSDP=5.92D-09 MaxDP=1.26D-07 DE=-2.73D-12 OVMax= 3.32D-07

 SCF Done:  E(RLC-wHPBE) =  -538.605976253     A.U. after   14 cycles
            NFock= 14  Conv=0.59D-08     -V/T= 2.0117
 KE= 5.323544274365D+02 PE=-2.769725277651D+03 EE= 9.369748869095D+02
 Leave Link  502 at Tue May 10 16:56:15 2022, MaxMem=  6442450944 cpu:             312.3 elap:              19.6
 (Enter /home1/apps/gaussian/16rA.03/g16/l801.exe)
 DoSCS=F DFT=T ScalE2(SS,OS)=  1.000000  1.000000
 ExpMin= 1.22D-01 ExpMax= 1.24D+03 ExpMxC= 1.86D+02 IAcc=3 IRadAn=         5 AccDes= 0.00D+00
 HarFok:  IExCor=  205 AccDes= 0.00D+00 IRadAn=         5 IDoV=-2 UseB2=F ITyADJ=14
 ICtDFT= 12500011 ScaDFX=  1.000000  1.000000  1.000000  1.000000
 Largest valence mixing into a core orbital is  7.85D-05
 Largest core mixing into a valence orbital is  4.19D-05
 Range of M.O.s used for correlation:    15   246
 NBasis=   246 NAE=    47 NBE=    47 NFC=    14 NFV=     0
 NROrb=    232 NOA=    33 NOB=    33 NVA=   199 NVB=   199

 **** Warning!!: The largest alpha MO coefficient is  0.18230170D+02

 Leave Link  801 at Tue May 10 16:56:15 2022, MaxMem=  6442450944 cpu:               1.5 elap:               0.1
 (Enter /home1/apps/gaussian/16rA.03/g16/l914.exe)
 RHF ground state
 Keep R1, R2, and R3 ints in memory in canonical form, NReq=3348240646.
 FoFCou: FMM=F IPFlag=           0 FMFlag=           0 FMFlg1=           0
         NFxFlg=           0 DoJE=F BraDBF=F KetDBF=F FulRan=T
         wScrn=  0.000000 ICntrl=       600 IOpCl=  0 I1Cent=           0 NGrid=           0
         NMat0=    1 NMatS0=  30381 NMatT0=    0 NMatD0=    1 NMtDS0=    0 NMtDT0=    0
 Symmetry not used in FoFCou.
 Two-electron integral symmetry not used.
 MDV=  6442450944 DFT=T DoStab=F Mixed=T DoRPA=T DoScal=F NonHer=T
 Making orbital integer symmetry assigments:
 Orbital symmetries:
       Occupied  (A) (A) (A) (A) (A) (A) (A) (A) (A) (A) (A) (A)
                 (A) (A) (A) (A) (A) (A) (A) (A) (A) (A) (A) (A)
                 (A) (A) (A) (A) (A) (A) (A) (A) (A) (A) (A) (A)
                 (A) (A) (A) (A) (A) (A) (A) (A) (A) (A) (A)
       Virtual   (A) (A) (A) (A) (A) (A) (A) (A) (A) (A) (A) (A)
                 (A) (A) (A) (A) (A) (A) (A) (A) (A) (A) (A) (A)
                 (A) (A) (A) (A) (A) (A) (A) (A) (A) (A) (A) (A)
                 (A) (A) (A) (A) (A) (A) (A) (A) (A) (A) (A) (A)
                 (A) (A) (A) (A) (A) (A) (A) (A) (A) (A) (A) (A)
                 (A) (A) (A) (A) (A) (A) (A) (A) (A) (A) (A) (A)
                 (A) (A) (A) (A) (A) (A) (A) (A) (A) (A) (A) (A)
                 (A) (A) (A) (A) (A) (A) (A) (A) (A) (A) (A) (A)
                 (A) (A) (A) (A) (A) (A) (A) (A) (A) (A) (A) (A)
                 (A) (A) (A) (A) (A) (A) (A) (A) (A) (A) (A) (A)
                 (A) (A) (A) (A) (A) (A) (A) (A) (A) (A) (A) (A)
                 (A) (A) (A) (A) (A) (A) (A) (A) (A) (A) (A) (A)
                 (A) (A) (A) (A) (A) (A) (A) (A) (A) (A) (A) (A)
                 (A) (A) (A) (A) (A) (A) (A) (A) (A) (A) (A) (A)
                 (A) (A) (A) (A) (A) (A) (A) (A) (A) (A) (A) (A)
                 (A) (A) (A) (A) (A) (A) (A) (A) (A) (A) (A) (A)
                 (A) (A) (A) (A) (A) (A) (A)
   120 initial guesses have been made.
 Convergence on wavefunction:    0.001000000000000
 Davidson Disk Diagonalization:  ConvIn= 1.00D-03 SkipCon=T Conv= 1.00D-03.
 Max sub-space:  2000 roots to seek:   120 dimension of matrix:        13134
 Iteration     1 Dimension   120 NMult     0 NNew    120
 CISAX will form   120 AO SS matrices at one time.
 NMat=   120 NSing=    60 JSym2X= 0.
 New state      1 was old state      2
 New state      2 was old state      8
 New state      3 was old state      4
 New state      4 was old state      1
 New state      5 was old state      6
 New state      6 was old state      5
 New state      7 was old state     16
 New state      8 was old state     12
 New state      9 was old state     10
 New state     10 was old state      7
 New state     11 was old state     18
 New state     12 was old state     20
 New state     13 was old state     14
 New state     14 was old state      9
 New state     15 was old state     13
 New state     16 was old state     19
 New state     17 was old state     24
 New state     18 was old state     23
 New state     19 was old state     38
 New state     20 was old state     22
 New state     21 was old state     26
 New state     22 was old state      3
 New state     23 was old state     25
 New state     24 was old state     44
 New state     25 was old state     30
 New state     26 was old state     32
 New state     27 was old state     40
 New state     28 was old state     17
 New state     29 was old state     28
 New state     30 was old state     31
 New state     31 was old state     37
 New state     32 was old state     52
 New state     33 was old state     11
 New state     34 was old state     46
 New state     35 was old state     34
 New state     36 was old state     27
 New state     37 was old state     33
 New state     38 was old state     15
 New state     39 was old state     48
 New state     40 was old state     50
 New state     41 was old state     36
 New state     43 was old state     35
 New state     44 was old state     49
 New state     45 was old state     41
 New state     46 was old state     47
 New state     47 was old state     60
 New state     48 was old state     58
 New state     49 was old state     45
 New state     50 was old state     57
 New state     51 was old state     59
 New state     52 was old state     51
 New state     53 was old state     56
 New state     54 was old state     68
 New state     55 was old state     43
 New state     56 was old state     86
 New state     57 was old state     54
 New state     58 was old state     70
 New state     59 was old state     74
 New state     60 was old state     29
 Excitation Energies [eV] at current iteration:
 Root      1 :     2.020849550319181
 Root      2 :     3.444870041671646
 Root      3 :     3.533972727086655
 Root      4 :     3.613815340238908
 Root      5 :     3.672338822180622
 Root      6 :     3.873840683621796
 Root      7 :     4.259773637182976
 Root      8 :     4.675788494491662
 Root      9 :     4.699137782497357
 Root     10 :     4.738204356487342
 Root     11 :     4.739057743907858
 Root     12 :     5.268315011076280
 Root     13 :     5.315385883008679
 Root     14 :     5.359865717710515
 Root     15 :     5.360981289631623
 Root     16 :     5.488585356372949
 Root     17 :     5.547445743638547
 Root     18 :     5.686328939860308
 Root     19 :     5.693487272295591
 Root     20 :     5.840230926181479
 Root     21 :     5.897724840011384
 Root     22 :     5.941500276173072
 Root     23 :     6.064531348009015
 Root     24 :     6.091230001203339
 Root     25 :     6.137861547083613
 Root     26 :     6.190767684496354
 Root     27 :     6.266128307892145
 Root     28 :     6.275809404274276
 Root     29 :     6.354722005108641
 Root     30 :     6.358562807384114
 Root     31 :     6.518916296559253
 Root     32 :     6.538571829888089
 Root     33 :     6.559152649924646
 Root     34 :     6.775106630003004
 Root     35 :     6.804699204202846
 Root     36 :     6.813578761669581
 Root     37 :     6.887457567901832
 Root     38 :     6.896430088346767
 Root     39 :     6.906009843766176
 Root     40 :     6.927952442193066
 Root     41 :     6.936084731558021
 Root     42 :     6.984009881354497
 Root     43 :     7.024295980193611
 Root     44 :     7.051482447077656
 Root     45 :     7.058111105886706
 Root     46 :     7.126209599964370
 Root     47 :     7.135479349760012
 Root     48 :     7.217396984553308
 Root     49 :     7.342336903588140
 Root     50 :     7.402268469370113
 Root     51 :     7.465885817435612
 Root     52 :     7.567079596301020
 Root     53 :     7.595206658177149
 Root     54 :     7.631051783061137
 Root     55 :     7.631373999287554
 Root     56 :     7.636353025171618
 Root     57 :     7.648126662635622
 Root     58 :     7.693889445307337
 Root     59 :     7.698329053996793
 Root     60 :     7.738019167780859
 Root     61 :     7.744609630747357
 Root     62 :     7.745626732215078
 Root     63 :     7.770732782741478
 Root     64 :     7.808790410104291
 Root     65 :     7.859014549091037
 Root     66 :     7.877486024603196
 Root     67 :     7.884940438002818
 Root     68 :     7.886757420213373
 Root     69 :     7.895722685298890
 Root     70 :     7.909589527137831
 Root     71 :     7.920439187469111
 Root     72 :     7.939178030913919
 Root     73 :     7.945249755994610
 Root     74 :     8.041009123098366
 Root     75 :     8.042242545247952
 Root     76 :     8.045328542688853
 Root     77 :     8.170795552283760
 Root     78 :     8.175728754967068
 Root     79 :     8.198873489222319
 Root     80 :     8.209650969898018
 Root     81 :     8.220912827442126
 Root     82 :     8.258922674345401
 Root     83 :     8.284830066376299
 Root     84 :     8.291108711986563
 Root     85 :     8.310237306320660
 Root     86 :     8.316083651604504
 Root     87 :     8.327474186169340
 Root     88 :     8.385324327908375
 Root     89 :     8.385767329508393
 Root     90 :     8.447928023099269
 Root     91 :     8.502486603690791
 Root     92 :     8.585439400415915
 Root     93 :     8.604628902969029
 Root     94 :     8.609421241376458
 Root     95 :     8.619296121511633
 Root     96 :     8.658040326810834
 Root     97 :     8.664992475606574
 Root     98 :     8.692869199249996
 Root     99 :     8.741262784424981
 Root    100 :     8.746641308181182
 Root    101 :     8.804528228714403
 Root    102 :     8.846271345078220
 Root    103 :     8.849840685293330
 Root    104 :     8.880444946856299
 Root    105 :     8.888587323978973
 Root    106 :     8.930847340606977
 Root    107 :     8.951225713075786
 Root    108 :     8.953476015080698
 Root    109 :     8.969043944993075
 Root    110 :     9.014183666998346
 Root    111 :     9.030422700689561
 Root    112 :     9.064137067153407
 Root    113 :     9.068079525150798
 Root    114 :     9.201008704892134
 Root    115 :     9.219492562575104
 Root    116 :     9.288234689100495
 Root    117 :     9.360300397079945
 Root    118 :     9.421716731267102
 Root    119 :     9.427936648957161
 Root    120 :    10.605552577313986
 Vector  25 SDiff=1.70D+01 TDiff=2.79D-03 assumed to be triplet.
 Vector  26 SDiff=2.35D+00 TDiff=2.47D+00 assumed to be singlet.
 Vector  27 SDiff=1.69D+00 TDiff=1.56D+00 assumed to be triplet.
 Vector  29 SDiff=2.27D+00 TDiff=1.86D+00 assumed to be triplet.
 Vector  55 SDiff=1.29D+01 TDiff=9.38D-04 assumed to be triplet.
 Vector  56 SDiff=2.38D+00 TDiff=2.38D+00 assumed to be singlet.
 Vector  57 SDiff=1.75D+00 TDiff=1.51D+00 assumed to be triplet.
 Vector  59 SDiff=2.33D+00 TDiff=1.67D+00 assumed to be triplet.
 Iteration     2 Dimension   180 NMult   120 NNew     60
 CISAX will form    60 AO SS matrices at one time.
 NMat=    60 NSing=    24 JSym2X= 0.
 Root      1 not converged, maximum delta is    0.101988971803188
 Root      2 not converged, maximum delta is    0.071211726277464
 New state      3 was old state      4
 Root      3 not converged, maximum delta is    0.045342691113669
 New state      4 was old state      3
 Root      4 not converged, maximum delta is    0.038947804006126
 Root      5 not converged, maximum delta is    0.037796018650194
 Root      6 not converged, maximum delta is    0.010348036767123
 Root      7 not converged, maximum delta is    0.070805971522331
 Root      8 not converged, maximum delta is    0.132861915025327
 New state      9 was old state     11
 Root      9 not converged, maximum delta is    0.092650231942770
 New state     10 was old state      9
 Root     10 not converged, maximum delta is    0.014741215704729
 New state     11 was old state     10
 Root     11 not converged, maximum delta is    0.113998151568193
 New state     12 was old state     14
 Root     12 not converged, maximum delta is    0.111373938399826
 New state     13 was old state     12
 Root     13 not converged, maximum delta is    0.081064431425388
 New state     14 was old state     22
 Root     14 not converged, maximum delta is    0.074875225466733
 New state     15 was old state     13
 Root     15 not converged, maximum delta is    0.013772071866183
 New state     16 was old state     15
 Root     16 not converged, maximum delta is    0.023672997997291
 New state     17 was old state     16
 Root     17 not converged, maximum delta is    0.039817846982536
 New state     18 was old state     17
 Root     18 not converged, maximum delta is    0.035022957874051
 New state     19 was old state     20
 Root     19 not converged, maximum delta is    0.105267503613028
 New state     20 was old state     19
 Root     20 not converged, maximum delta is    0.016872082162914
 New state     21 was old state     18
 Root     21 not converged, maximum delta is    0.016555552417628
 New state     22 was old state     21
 Root     22 not converged, maximum delta is    0.106883950231551
 New state     23 was old state     24
 Root     23 not converged, maximum delta is    0.086280100945170
 New state     24 was old state     33
 Root     24 not converged, maximum delta is    0.113994291785325
 New state     25 was old state     23
 Root     25 not converged, maximum delta is    0.086349742374247
 New state     26 was old state     28
 Root     26 not converged, maximum delta is    0.045543654532436
 New state     27 was old state     30
 Root     27 not converged, maximum delta is    0.052402334173601
 New state     28 was old state     31
 Root     28 not converged, maximum delta is    0.017743175987464
 New state     29 was old state     38
 Root     29 not converged, maximum delta is    0.128312603782949
 New state     30 was old state     36
 Root     30 not converged, maximum delta is    0.051037730339495
 Excitation Energies [eV] at current iteration:
 Root      1 :     1.831415638058310   Change is   -0.189433912260871
 Root      2 :     3.266563013526537   Change is   -0.178307028145108
 Root      3 :     3.302748604995895   Change is   -0.311066735243013
 Root      4 :     3.488476992258094   Change is   -0.045495734828561
 Root      5 :     3.647955047931639   Change is   -0.024383774248983
 Root      6 :     3.831227403674499   Change is   -0.042613279947297
 Root      7 :     4.090258473920904   Change is   -0.169515163262073
 Root      8 :     4.420375973561130   Change is   -0.255412520930531
 Root      9 :     4.604741566605744   Change is   -0.134316177302114
 Root     10 :     4.689694258250705   Change is   -0.009443524246652
 Root     11 :     4.713762823190138   Change is   -0.024441533297204
 Root     12 :     4.935500301369904   Change is   -0.424365416340611
 Root     13 :     5.212152033464313   Change is   -0.056162977611967
 Root     14 :     5.263069774362729   Change is   -0.678430501810342
 Root     15 :     5.306491380190296   Change is   -0.008894502818384
 Root     16 :     5.348398485421585   Change is   -0.012582804210038
 Root     17 :     5.420768338908385   Change is   -0.067817017464565
 Root     18 :     5.506612613815136   Change is   -0.040833129823411
 Root     19 :     5.616518061167422   Change is   -0.223712865014057
 Root     20 :     5.633806834476050   Change is   -0.059680437819540
 Root     21 :     5.665463076952109   Change is   -0.020865862908199
 Root     22 :     5.756808796976817   Change is   -0.140916043034567
 Root     23 :     5.878094132034508   Change is   -0.213135869168831
 Root     24 :     5.955973726216736   Change is   -0.603178923707910
 Root     25 :     5.969151944359028   Change is   -0.095379403649988
 Root     26 :     6.234689974780171   Change is   -0.041119429494105
 Root     27 :     6.301747270555594   Change is   -0.056815536828520
 Root     28 :     6.514667826081949   Change is   -0.004248470477304
 Root     29 :     6.752955470445879   Change is   -0.143474617900888
 Root     30 :     6.778279192494194   Change is   -0.035299569175387
 Iteration     3 Dimension   240 NMult   180 NNew     60
 CISAX will form    60 AO SS matrices at one time.
 NMat=    60 NSing=    30 JSym2X= 0.
 Root      1 not converged, maximum delta is    0.004845718289902
 Root      2 not converged, maximum delta is    0.006589986881200
 Root      3 not converged, maximum delta is    0.006030467027950
 Root      4 not converged, maximum delta is    0.005423509822680
 Root      5 not converged, maximum delta is    0.002486354431300
 Root      6 not converged, maximum delta is    0.001754624392354
 Root      7 not converged, maximum delta is    0.011073454078438
 Root      8 not converged, maximum delta is    0.003630991642379
 Root      9 not converged, maximum delta is    0.013973035967667
 Root     10 not converged, maximum delta is    0.001343661905745
 Root     11 not converged, maximum delta is    0.040349494532092
 Root     12 not converged, maximum delta is    0.035596004573581
 Root     13 not converged, maximum delta is    0.004883003215210
 Root     14 not converged, maximum delta is    0.011085920734817
 Root     15 not converged, maximum delta is    0.001550264198701
 Root     16 not converged, maximum delta is    0.002780945231423
 Root     17 not converged, maximum delta is    0.004153517706561
 Root     18 not converged, maximum delta is    0.004179999224809
 Root     19 not converged, maximum delta is    0.007743928925723
 Root     20 not converged, maximum delta is    0.003805869338113
 Root     21 not converged, maximum delta is    0.002099768880108
 Root     22 not converged, maximum delta is    0.006690873270428
 Root     23 not converged, maximum delta is    0.007350878426580
 Root     24 not converged, maximum delta is    0.064260498934220
 Root     25 not converged, maximum delta is    0.006372438299006
 Root     26 not converged, maximum delta is    0.130499922297463
 New state     27 was old state     29
 Root     27 not converged, maximum delta is    0.347565703598422
 New state     28 was old state     27
 Root     28 not converged, maximum delta is    0.006651691033384
 New state     29 was old state     28
 Root     29 not converged, maximum delta is    0.011940962075804
 Root     30 not converged, maximum delta is    0.144107928388660
 Excitation Energies [eV] at current iteration:
 Root      1 :     1.828646790843951   Change is   -0.002768847214359
 Root      2 :     3.262376290975051   Change is   -0.004186722551487
 Root      3 :     3.290328566124243   Change is   -0.012420038871652
 Root      4 :     3.486321868793143   Change is   -0.002155123464950
 Root      5 :     3.647575474654020   Change is   -0.000379573277618
 Root      6 :     3.830518908649905   Change is   -0.000708495024595
 Root      7 :     4.084264672730780   Change is   -0.005993801190123
 Root      8 :     4.417570282111612   Change is   -0.002805691449518
 Root      9 :     4.595903357536661   Change is   -0.008838209069083
 Root     10 :     4.689504855429354   Change is   -0.000189402821351
 Root     11 :     4.708910646623633   Change is   -0.004852176566505
 Root     12 :     4.895997031419526   Change is   -0.039503269950378
 Root     13 :     5.210713226640781   Change is   -0.001438806823532
 Root     14 :     5.224961755595966   Change is   -0.038108018766763
 Root     15 :     5.306296516893197   Change is   -0.000194863297098
 Root     16 :     5.347874345601322   Change is   -0.000524139820263
 Root     17 :     5.419161835798294   Change is   -0.001606503110091
 Root     18 :     5.505198277643966   Change is   -0.001414336171170
 Root     19 :     5.609256495380584   Change is   -0.007261565786838
 Root     20 :     5.632435876495139   Change is   -0.001370957980911
 Root     21 :     5.664512720692593   Change is   -0.000950356259516
 Root     22 :     5.752748468396569   Change is   -0.004060328580249
 Root     23 :     5.873191131249426   Change is   -0.004903000785083
 Root     24 :     5.918070001542140   Change is   -0.037903724674596
 Root     25 :     5.966520692927640   Change is   -0.002631251431387
 Root     26 :     6.175297202460512   Change is   -0.059392772319659
 Root     27 :     6.205916882606952   Change is   -0.547038587838926
 Root     28 :     6.299065493743952   Change is   -0.002681776811642
 Root     29 :     6.454866607964604   Change is   -0.059801218117345
 Root     30 :     6.475770599166756   Change is   -0.302508593327438
 Iteration     4 Dimension   300 NMult   240 NNew     60
 CISAX will form    60 AO SS matrices at one time.
 NMat=    60 NSing=    30 JSym2X= 0.
 Root      1 has converged.
 Root      2 has converged.
 Root      3 has converged.
 Root      4 has converged.
 Root      5 has converged.
 Root      6 has converged.
 Root      7 has converged.
 Root      8 has converged.
 Root      9 not converged, maximum delta is    0.001778631969693
 Root     10 has converged.
 Root     11 not converged, maximum delta is    0.001100152680014
 Root     12 not converged, maximum delta is    0.001392811162028
 Root     13 has converged.
 Root     14 not converged, maximum delta is    0.002514403777445
 Root     15 has converged.
 Root     16 has converged.
 Root     17 has converged.
 Root     18 has converged.
 Root     19 has converged.
 Root     20 has converged.
 Root     21 has converged.
 Root     22 not converged, maximum delta is    0.002200926846634
 Root     23 not converged, maximum delta is    0.001224428771748
 Root     24 not converged, maximum delta is    0.004270678729509
 Root     25 not converged, maximum delta is    0.001803706523941
 Root     26 not converged, maximum delta is    0.007891979827335
 Root     27 not converged, maximum delta is    0.007169140820808
 Root     28 not converged, maximum delta is    0.001103339220858
 Root     29 not converged, maximum delta is    0.003320515608091
 Root     30 not converged, maximum delta is    0.011308330336865
 Excitation Energies [eV] at current iteration:
 Root      1 :     1.828601070640271   Change is   -0.000045720203680
 Root      2 :     3.262294096677662   Change is   -0.000082194297389
 Root      3 :     3.290053484115607   Change is   -0.000275082008635
 Root      4 :     3.486289689388120   Change is   -0.000032179405023
 Root      5 :     3.647570730907608   Change is   -0.000004743746412
 Root      6 :     3.830500202088330   Change is   -0.000018706561575
 Root      7 :     4.084141441069503   Change is   -0.000123231661277
 Root      8 :     4.417520802139675   Change is   -0.000049479971937
 Root      9 :     4.595680357033640   Change is   -0.000223000503021
 Root     10 :     4.689502819262099   Change is   -0.000002036167255
 Root     11 :     4.708786173335665   Change is   -0.000124473287968
 Root     12 :     4.895061071739329   Change is   -0.000935959680197
 Root     13 :     5.210685056204087   Change is   -0.000028170436694
 Root     14 :     5.223483704324247   Change is   -0.001478051271720
 Root     15 :     5.306294873601950   Change is   -0.000001643291247
 Root     16 :     5.347853518360083   Change is   -0.000020827241239
 Root     17 :     5.419101122802397   Change is   -0.000060712995897
 Root     18 :     5.505153460110962   Change is   -0.000044817533004
 Root     19 :     5.609141233843537   Change is   -0.000115261537047
 Root     20 :     5.632380236155250   Change is   -0.000055640339889
 Root     21 :     5.664484953085164   Change is   -0.000027767607428
 Root     22 :     5.752569840283808   Change is   -0.000178628112761
 Root     23 :     5.873000294150281   Change is   -0.000190837099144
 Root     24 :     5.916656139731329   Change is   -0.001413861810810
 Root     25 :     5.966396756050979   Change is   -0.000123936876662
 Root     26 :     6.172378195809733   Change is   -0.002919006650779
 Root     27 :     6.192453878292084   Change is   -0.013463004314869
 Root     28 :     6.298931337834036   Change is   -0.000134155909916
 Root     29 :     6.453649370384788   Change is   -0.001217237579816
 Root     30 :     6.468356345518002   Change is   -0.007414253648755
 Iteration     5 Dimension   326 NMult   300 NNew     26
 CISAX will form    26 AO SS matrices at one time.
 NMat=    26 NSing=    20 JSym2X= 0.
 Root      1 has converged.
 Root      2 has converged.
 Root      3 has converged.
 Root      4 has converged.
 Root      5 has converged.
 Root      6 has converged.
 Root      7 has converged.
 Root      8 has converged.
 Root      9 has converged.
 Root     10 has converged.
 Root     11 has converged.
 Root     12 has converged.
 Root     13 has converged.
 Root     14 has converged.
 Root     15 has converged.
 Root     16 has converged.
 Root     17 has converged.
 Root     18 has converged.
 Root     19 has converged.
 Root     20 has converged.
 Root     21 has converged.
 Root     22 has converged.
 Root     23 has converged.
 Root     24 has converged.
 Root     25 has converged.
 Root     26 has converged.
 Root     27 not converged, maximum delta is    0.001143421099183
 Root     28 has converged.
 Root     29 has converged.
 Root     30 not converged, maximum delta is    0.002071194432153
 Excitation Energies [eV] at current iteration:
 Root      1 :     1.828601070604620   Change is   -0.000000000035651
 Root      2 :     3.262293681439976   Change is   -0.000000415237686
 Root      3 :     3.290052980157033   Change is   -0.000000503958575
 Root      4 :     3.486289689330490   Change is   -0.000000000057631
 Root      5 :     3.647570730860527   Change is   -0.000000000047081
 Root      6 :     3.830500100734762   Change is   -0.000000101353568
 Root      7 :     4.084141441046356   Change is   -0.000000000023147
 Root      8 :     4.417520802077631   Change is   -0.000000000062044
 Root      9 :     4.595678150771795   Change is   -0.000002206261845
 Root     10 :     4.689502799030945   Change is   -0.000000020231154
 Root     11 :     4.708783699587782   Change is   -0.000002473747884
 Root     12 :     4.895041717844883   Change is   -0.000019353894447
 Root     13 :     5.210684910152399   Change is   -0.000000146051688
 Root     14 :     5.223441356339091   Change is   -0.000042347985155
 Root     15 :     5.306294873580246   Change is   -0.000000000021705
 Root     16 :     5.347853374121107   Change is   -0.000000144238976
 Root     17 :     5.419100586543489   Change is   -0.000000536258908
 Root     18 :     5.505153460105004   Change is   -0.000000000005958
 Root     19 :     5.609140452448843   Change is   -0.000000781394695
 Root     20 :     5.632380236000187   Change is   -0.000000000155063
 Root     21 :     5.664484953008595   Change is   -0.000000000076570
 Root     22 :     5.752559910249595   Change is   -0.000009930034213
 Root     23 :     5.872993197505432   Change is   -0.000007096644850
 Root     24 :     5.916630728537042   Change is   -0.000025411194288
 Root     25 :     5.966389478742709   Change is   -0.000007277308270
 Root     26 :     6.172230207548854   Change is   -0.000147988260879
 Root     27 :     6.192080834756319   Change is   -0.000373043535765
 Root     28 :     6.298925017803971   Change is   -0.000006320030065
 Root     29 :     6.453606660973571   Change is   -0.000042709411218
 Root     30 :     6.468010768435040   Change is   -0.000345577082962
 Iteration     6 Dimension   330 NMult   326 NNew      4
 CISAX will form     4 AO SS matrices at one time.
 NMat=     4 NSing=     4 JSym2X= 0.
 Root      1 has converged.
 Root      2 has converged.
 Root      3 has converged.
 Root      4 has converged.
 Root      5 has converged.
 Root      6 has converged.
 Root      7 has converged.
 Root      8 has converged.
 Root      9 has converged.
 Root     10 has converged.
 Root     11 has converged.
 Root     12 has converged.
 Root     13 has converged.
 Root     14 has converged.
 Root     15 has converged.
 Root     16 has converged.
 Root     17 has converged.
 Root     18 has converged.
 Root     19 has converged.
 Root     20 has converged.
 Root     21 has converged.
 Root     22 has converged.
 Root     23 has converged.
 Root     24 has converged.
 Root     25 has converged.
 Root     26 has converged.
 Root     27 has converged.
 Root     28 has converged.
 Root     29 has converged.
 Root     30 has converged.
 Excitation Energies [eV] at current iteration:
 Root      1 :     1.828601070604575   Change is   -0.000000000000045
 Root      2 :     3.262293681440026   Change is    0.000000000000051
 Root      3 :     3.290052881288568   Change is   -0.000000098868464
 Root      4 :     3.486289689330419   Change is   -0.000000000000070
 Root      5 :     3.647570730860527   Change is    0.000000000000000
 Root      6 :     3.830500100725619   Change is   -0.000000000009143
 Root      7 :     4.084141441046315   Change is   -0.000000000000041
 Root      8 :     4.417520802077631   Change is    0.000000000000000
 Root      9 :     4.595678150771867   Change is    0.000000000000072
 Root     10 :     4.689502799030981   Change is    0.000000000000035
 Root     11 :     4.708783699552900   Change is   -0.000000000034881
 Root     12 :     4.895041717833731   Change is   -0.000000000011152
 Root     13 :     5.210684910152384   Change is   -0.000000000000015
 Root     14 :     5.223441356260415   Change is   -0.000000000078675
 Root     15 :     5.306294873580277   Change is    0.000000000000031
 Root     16 :     5.347853364925665   Change is   -0.000000009195443
 Root     17 :     5.419100486875771   Change is   -0.000000099667718
 Root     18 :     5.505153460105063   Change is    0.000000000000060
 Root     19 :     5.609140452448843   Change is    0.000000000000000
 Root     20 :     5.632380236000158   Change is   -0.000000000000029
 Root     21 :     5.664484953008580   Change is   -0.000000000000014
 Root     22 :     5.752559910249610   Change is    0.000000000000014
 Root     23 :     5.872993197505432   Change is    0.000000000000000
 Root     24 :     5.916630465225198   Change is   -0.000000263311843
 Root     25 :     5.966389478742750   Change is    0.000000000000042
 Root     26 :     6.172230073059175   Change is   -0.000000134489678
 Root     27 :     6.192068512210843   Change is   -0.000012322545476
 Root     28 :     6.298925017804049   Change is    0.000000000000079
 Root     29 :     6.453606660871410   Change is   -0.000000000102161
 Root     30 :     6.467998466545883   Change is   -0.000012301889157
 Convergence achieved on expansion vectors.
 ***********************************************************************
 Excited states from <AA,BB:AA,BB> singles matrix:
 ***********************************************************************
 
 1PDM for each excited state written to RWF  633
 Ground to excited state transition densities written to RWF  633
 Ground to excited state transition electric dipole moments (Au):
       state          X           Y           Z        Dip. S.      Osc.
         1         0.0000      0.0000      0.0000      0.0000      0.0000
         2        -0.0000      0.0000     -0.0000      0.0000      0.0000
         3         0.0003      0.8925     -0.0000      0.7966      0.0642
         4         0.0000     -0.0000      0.0000      0.0000      0.0000
         5        -0.0000     -0.0000      0.0000      0.0000      0.0000
         6        -0.0944     -0.0000      0.0000      0.0089      0.0008
         7         0.0000      0.0000     -0.0000      0.0000      0.0000
         8         0.0000      0.0000      0.0000      0.0000      0.0000
         9         0.0000     -0.0000      0.0000      0.0000      0.0000
        10        -0.0000     -0.0000     -0.0000      0.0000      0.0000
        11         0.0001      0.0001     -0.0000      0.0000      0.0000
        12        -0.0006      0.0001     -0.0000      0.0000      0.0000
        13         0.0000      0.0000     -0.0000      0.0000      0.0000
        14        -3.8556      0.0002      0.0000     14.8653      1.9023
        15         0.0000      0.0000      0.0000      0.0000      0.0000
        16        -0.0005      0.0082      0.0000      0.0001      0.0000
        17        -0.0002      0.0001      0.0000      0.0000      0.0000
        18         0.0000      0.0000      0.0000      0.0000      0.0000
        19        -0.0000     -0.0000     -0.0000      0.0000      0.0000
        20         0.0000      0.0000     -0.0000      0.0000      0.0000
        21        -0.0000      0.0000     -0.0207      0.0004      0.0001
        22        -0.0000     -0.0000     -0.0000      0.0000      0.0000
        23        -0.0000     -0.0000      0.0000      0.0000      0.0000
        24        -0.0004     -0.8839     -0.0000      0.7813      0.1132
        25         0.0000      0.0000      0.0000      0.0000      0.0000
        26        -0.0001      0.0001      0.0000      0.0000      0.0000
        27         0.0003      0.1480      0.0000      0.0219      0.0033
        28         0.0000      0.0000     -0.0000      0.0000      0.0000
        29        -0.0320     -0.0000      0.0000      0.0010      0.0002
        30        -0.0003      0.0002     -0.0000      0.0000      0.0000
 Ground to excited state transition velocity dipole moments (Au):
       state          X           Y           Z        Dip. S.      Osc.
         1        -0.0000     -0.0000     -0.0000      0.0000      0.0000
         2         0.0000      0.0000      0.0000      0.0000      0.0000
         3        -0.0000     -0.1259     -0.0000      0.0159      0.0874
         4        -0.0000      0.0000     -0.0000      0.0000      0.0000
         5         0.0000      0.0000     -0.0000      0.0000      0.0000
         6         0.0063      0.0000     -0.0000      0.0000      0.0002
         7        -0.0000     -0.0000      0.0000      0.0000      0.0000
         8        -0.0000     -0.0000      0.0000      0.0000      0.0000
         9        -0.0000      0.0000     -0.0000      0.0000      0.0000
        10        -0.0000      0.0000      0.0000      0.0000      0.0000
        11        -0.0000     -0.0000      0.0000      0.0000      0.0000
        12         0.0001     -0.0000      0.0000      0.0000      0.0000
        13        -0.0000     -0.0000      0.0000      0.0000      0.0000
        14         0.7153     -0.0000     -0.0000      0.5117      1.7772
        15        -0.0000     -0.0000      0.0000      0.0000      0.0000
        16         0.0001     -0.0022     -0.0000      0.0000      0.0000
        17         0.0000     -0.0000     -0.0000      0.0000      0.0000
        18        -0.0000     -0.0000     -0.0000      0.0000      0.0000
        19         0.0000      0.0000      0.0000      0.0000      0.0000
        20        -0.0000      0.0000      0.0000      0.0000      0.0000
        21         0.0000     -0.0000      0.0028      0.0000      0.0000
        22         0.0000      0.0000      0.0000      0.0000      0.0000
        23         0.0000      0.0000     -0.0000      0.0000      0.0000
        24         0.0001      0.1979     -0.0000      0.0392      0.1200
        25        -0.0000     -0.0000      0.0000      0.0000      0.0000
        26         0.0000     -0.0000     -0.0000      0.0000      0.0000
        27        -0.0001     -0.0365     -0.0000      0.0013      0.0039
        28         0.0000     -0.0000      0.0000      0.0000      0.0000
        29         0.0047      0.0000     -0.0000      0.0000      0.0001
        30         0.0001     -0.0000      0.0000      0.0000      0.0000
 Ground to excited state transition magnetic dipole moments (Au):
       state          X           Y           Z
         1         0.0000     -0.0000     -0.0000
         2         0.0000     -0.0000     -0.0000
         3         0.0000      0.0000     -0.0003
         4         0.0000      0.0000     -0.0000
         5         0.0000      0.0000     -0.0000
         6        -0.0000     -0.0000     -0.0000
         7         0.0000      0.0000      0.0000
         8        -0.0000      0.0000      0.0000
         9        -0.0000      0.0000      0.0000
        10         0.0000     -0.0000      0.0000
        11        -0.0000     -0.0000      0.1037
        12        -0.0000     -0.0000      1.5906
        13         0.0000     -0.0000      0.0000
        14         0.0000     -0.0000     -0.0003
        15        -0.0000     -0.0000      0.0000
        16         0.0000      0.0000     -0.0003
        17        -0.0000     -0.0000     -0.0001
        18        -0.0000     -0.0000      0.0000
        19        -0.0000      0.0000     -0.0000
        20        -0.0000      0.0000      0.0000
        21        -0.0002      0.0001     -0.0000
        22         0.0000     -0.0000     -0.0000
        23        -0.0000     -0.0000     -0.0000
        24        -0.0000     -0.0000     -0.0010
        25         0.0001     -0.0001      0.0000
        26         0.0000     -0.0000      0.0000
        27        -0.0000      0.0000      0.0003
        28         0.0002     -0.3297      0.0000
        29        -0.0000      0.0000     -0.0000
        30         0.0000     -0.0000      0.0000
 Ground to excited state transition velocity quadrupole moments (Au):
       state          XX          YY          ZZ          XY          XZ          YZ
         1        -0.0000     -0.0000     -0.0000     -0.0000      0.0000      0.0000
         2         0.0000     -0.0000     -0.0000     -0.0000      0.0000      0.0000
         3        -0.0000     -0.0000      0.0000      0.0002     -0.0000     -0.0000
         4         0.0000     -0.0000     -0.0000     -0.0000     -0.0000      0.0000
         5        -0.0000      0.0000     -0.0000     -0.0000     -0.0000      0.0000
         6        -0.0000     -0.0000      0.0000     -0.0000      0.0000     -0.0000
         7        -0.0000     -0.0000     -0.0000      0.0000     -0.0000     -0.0000
         8        -0.0000     -0.0000      0.0000     -0.0000     -0.0000      0.0000
         9         0.0000     -0.0000     -0.0000      0.0000     -0.0000     -0.0000
        10         0.0000     -0.0000     -0.0000      0.0000      0.0000      0.0000
        11         0.0000      0.0000      0.0000      0.2572      0.0000     -0.0000
        12         0.0001      0.0000      0.0000      0.7466     -0.0000      0.0000
        13         0.0000      0.0000     -0.0000      0.0000      0.0000      0.0000
        14        -0.0004      0.0000      0.0000     -0.0002     -0.0000      0.0000
        15        -0.0000      0.0000     -0.0000      0.0000      0.0000     -0.0000
        16        -0.0000      0.0000      0.0000     -0.0001     -0.0000     -0.0000
        17         0.1484     -0.0846      0.0036     -0.0000      0.0000     -0.0000
        18        -0.0000      0.0000     -0.0000      0.0000      0.0000     -0.0000
        19         0.0000      0.0000     -0.0000     -0.0000     -0.0000     -0.0000
        20         0.0000      0.0000     -0.0000     -0.0000     -0.0000     -0.0000
        21         0.0000      0.0000     -0.0000     -0.0000     -0.0000     -0.0000
        22        -0.0000      0.0000      0.0000     -0.0000      0.0000      0.0000
        23         0.0000     -0.0000     -0.0000     -0.0000      0.0000     -0.0000
        24        -0.0000     -0.0000     -0.0000     -0.0002      0.0000      0.0000
        25         0.0000     -0.0000      0.0000      0.0000      0.0001     -0.0000
        26         0.4392     -0.1754     -0.0233     -0.0000      0.0000     -0.0000
        27         0.0003     -0.0001     -0.0000      0.0003     -0.0000     -0.0000
        28        -0.0000      0.0000      0.0000      0.0000      0.1343      0.0000
        29        -0.0011     -0.0001     -0.0000      0.0000     -0.0000     -0.0000
        30        -0.8491     -0.1999      0.0029     -0.0000      0.0000      0.0000
 <0|del|b> * <b|rxdel|0> + <0|del|b> * <b|delr+rdel|0>
 Rotatory Strengths (R) in cgs (10**-40 erg-esu-cm/Gauss)
       state          XX          YY          ZZ    R(velocity)    E-M Angle
         1         0.0000      0.0000      0.0000      0.0000       90.00
         2        -0.0000      0.0000     -0.0000     -0.0000       90.00
         3        -0.0000     -0.0000     -0.0000     -0.0000       90.00
         4         0.0000     -0.0000      0.0000      0.0000       90.00
         5         0.0000      0.0000      0.0000      0.0000       90.00
         6        -0.0000     -0.0000      0.0000     -0.0000       90.00
         7        -0.0000      0.0000     -0.0000     -0.0000       90.00
         8        -0.0000      0.0000     -0.0000     -0.0000       90.00
         9         0.0000     -0.0000      0.0000      0.0000       90.00
        10         0.0000     -0.0000     -0.0000     -0.0000       90.00
        11         0.0000     -0.0000      0.0000      0.0000       90.00
        12         0.0001      0.0000     -0.0000      0.0000       90.00
        13         0.0000     -0.0000     -0.0000     -0.0000       90.00
        14         0.0000      0.0001      0.0000      0.0000       90.00
        15         0.0000      0.0000      0.0000      0.0000       90.00
        16        -0.0000      0.0000     -0.0000     -0.0000       90.00
        17         0.0000      0.0000      0.0000      0.0000       90.00
        18         0.0000     -0.0000     -0.0000      0.0000       90.00
        19         0.0000     -0.0000     -0.0000     -0.0000       90.00
        20         0.0000      0.0000      0.0000      0.0000       90.00
        21        -0.0000     -0.0000     -0.0000     -0.0000       90.00
        22        -0.0000      0.0000     -0.0000     -0.0000       90.00
        23        -0.0000     -0.0000     -0.0000     -0.0000       90.00
        24        -0.0000     -0.0000     -0.0000     -0.0000       90.00
        25         0.0000     -0.0000     -0.0000     -0.0000       90.00
        26         0.0000     -0.0000      0.0000      0.0000       90.00
        27        -0.0000      0.0000     -0.0000     -0.0000       90.00
        28         0.0000      0.0000      0.0000      0.0000       90.00
        29         0.0000     -0.0000     -0.0000     -0.0000       90.00
        30         0.0000      0.0000     -0.0000      0.0000       90.00
 1/2[<0|r|b>*<b|rxdel|0> + (<0|rxdel|b>*<b|r|0>)*]
 Rotatory Strengths (R) in cgs (10**-40 erg-esu-cm/Gauss)
       state          XX          YY          ZZ     R(length)
         1        -0.0000      0.0000      0.0000      0.0000
         2         0.0000      0.0000     -0.0000      0.0000
         3        -0.0000     -0.0000     -0.0000     -0.0000
         4        -0.0000      0.0000      0.0000      0.0000
         5         0.0000      0.0000      0.0000      0.0000
         6        -0.0000     -0.0000      0.0000     -0.0000
         7        -0.0000     -0.0000      0.0000     -0.0000
         8         0.0000     -0.0000     -0.0000     -0.0000
         9         0.0000      0.0000     -0.0000      0.0000
        10         0.0000     -0.0000      0.0000      0.0000
        11         0.0000      0.0000      0.0000      0.0000
        12        -0.0000      0.0000      0.0002      0.0001
        13        -0.0000      0.0000      0.0000     -0.0000
        14         0.0001      0.0000      0.0000      0.0000
        15         0.0000      0.0000     -0.0000      0.0000
        16         0.0000     -0.0000      0.0000     -0.0000
        17        -0.0000      0.0000      0.0000      0.0000
        18         0.0000      0.0000     -0.0000      0.0000
        19        -0.0000      0.0000     -0.0000     -0.0000
        20         0.0000     -0.0000      0.0000      0.0000
        21        -0.0000     -0.0000     -0.0000     -0.0000
        22         0.0000     -0.0000     -0.0000     -0.0000
        23        -0.0000     -0.0000      0.0000     -0.0000
        24        -0.0000     -0.0000     -0.0000     -0.0000
        25        -0.0000      0.0000     -0.0000     -0.0000
        26         0.0000      0.0000     -0.0000      0.0000
        27         0.0000     -0.0001     -0.0000     -0.0000
        28        -0.0000      0.0001      0.0000      0.0000
        29        -0.0000      0.0000      0.0000     -0.0000
        30         0.0000      0.0000      0.0000      0.0000
  1/2[<0|del|b>*<b|r|0> + (<0|r|b>*<b|del|0>)*] (Au)
       state          X           Y           Z        Dip. S.   Osc.(frdel)
         1        -0.0000     -0.0000     -0.0000      0.0000      0.0000
         2        -0.0000      0.0000     -0.0000     -0.0000     -0.0000
         3        -0.0000     -0.1124      0.0000      0.1124      0.0749
         4        -0.0000     -0.0000     -0.0000      0.0000      0.0000
         5        -0.0000     -0.0000     -0.0000      0.0000      0.0000
         6        -0.0006     -0.0000     -0.0000      0.0006      0.0004
         7        -0.0000     -0.0000     -0.0000      0.0000      0.0000
         8        -0.0000     -0.0000      0.0000      0.0000      0.0000
         9        -0.0000     -0.0000     -0.0000      0.0000      0.0000
        10         0.0000     -0.0000     -0.0000      0.0000      0.0000
        11        -0.0000     -0.0000     -0.0000      0.0000      0.0000
        12        -0.0000     -0.0000     -0.0000      0.0000      0.0000
        13        -0.0000     -0.0000     -0.0000      0.0000      0.0000
        14        -2.7580     -0.0000     -0.0000      2.7580      1.8387
        15        -0.0000     -0.0000      0.0000      0.0000      0.0000
        16        -0.0000     -0.0000     -0.0000      0.0000      0.0000
        17        -0.0000     -0.0000     -0.0000      0.0000      0.0000
        18        -0.0000     -0.0000     -0.0000      0.0000      0.0000
        19        -0.0000     -0.0000     -0.0000      0.0000      0.0000
        20        -0.0000      0.0000     -0.0000      0.0000      0.0000
        21        -0.0000     -0.0000     -0.0001      0.0001      0.0000
        22        -0.0000     -0.0000     -0.0000      0.0000      0.0000
        23        -0.0000     -0.0000     -0.0000      0.0000      0.0000
        24        -0.0000     -0.1749      0.0000      0.1749      0.1166
        25        -0.0000     -0.0000      0.0000     -0.0000     -0.0000
        26        -0.0000     -0.0000     -0.0000      0.0000      0.0000
        27        -0.0000     -0.0054     -0.0000      0.0054      0.0036
        28         0.0000     -0.0000     -0.0000      0.0000      0.0000
        29        -0.0002     -0.0000     -0.0000      0.0002      0.0001
        30        -0.0000     -0.0000     -0.0000      0.0000      0.0000

 Excitation energies and oscillator strengths:
 
 Excited State   1:      Triplet-A      1.8286 eV  678.03 nm  f=0.0000  <S**2>=2.000
      45 -> 50         0.13211
      47 -> 48         0.69489
      47 <- 48         0.12474
 This state for optimization and/or second-order correction.
 Total Energy, E(TD-HF/TD-DFT) =  -538.538776400    
 Copying the excited state density for this state as the 1-particle RhoCI density.
 
 Excited State   2:      Triplet-A      3.2623 eV  380.05 nm  f=0.0000  <S**2>=2.000
      44 -> 50         0.11497
      45 -> 48         0.51301
      45 -> 51        -0.10692
      47 -> 50         0.45732
 
 Excited State   3:      Singlet-A      3.2901 eV  376.85 nm  f=0.0642  <S**2>=0.000
      47 -> 48         0.70192
 
 Excited State   4:      Triplet-A      3.4863 eV  355.63 nm  f=0.0000  <S**2>=2.000
      46 -> 48         0.61767
      47 -> 49         0.32423
 
 Excited State   5:      Triplet-A      3.6476 eV  339.91 nm  f=0.0000  <S**2>=2.000
      46 -> 48        -0.32688
      47 -> 49         0.61908
 
 Excited State   6:      Singlet-A      3.8305 eV  323.68 nm  f=0.0008  <S**2>=0.000
      46 -> 48         0.50766
      47 -> 49        -0.48501
 
 Excited State   7:      Triplet-A      4.0841 eV  303.57 nm  f=0.0000  <S**2>=2.000
      44 -> 48         0.44797
      45 -> 50         0.30357
      46 -> 49         0.10754
      47 -> 51        -0.43888
 
 Excited State   8:      Triplet-A      4.4175 eV  280.66 nm  f=0.0000  <S**2>=2.000
      43 -> 52        -0.11573
      46 -> 49         0.67132
[...]
          Condensed to atoms (all electrons):
               1          2          3          4          5          6
     1  C    5.121765   0.199252   0.097045  -0.126045  -0.001233   0.000168
     2  C    0.199252   5.121713   0.292551   0.090750   0.017845  -0.001226
     3  C    0.097045   0.292551   5.194736   0.269228  -0.118935   0.016354
     4  C   -0.126045   0.090750   0.269228   5.384710   0.289064   0.092845
     5  C   -0.001233   0.017845  -0.118935   0.289064   5.380518   0.289048
     6  C    0.000168  -0.001226   0.016354   0.092845   0.289048   5.384688
     7  C   -0.000003   0.000010  -0.000464   0.016365  -0.118967   0.269235
     8  C    0.000000  -0.000000   0.000010  -0.001226   0.017843   0.090803
     9  C   -0.000000   0.000000  -0.000003   0.000168  -0.001231  -0.126054
    10  C    0.000010  -0.000003   0.000067  -0.000836   0.016797   0.012956
    11  C   -0.001227   0.000168  -0.000836  -0.105268  -0.004395   0.100930
    12  C    0.017846  -0.001230   0.016785  -0.004454  -0.091294  -0.004436
    13  C    0.090769  -0.126070   0.012949   0.100852  -0.004431  -0.105288
    14  C    0.292476   0.097045  -0.130000   0.012960   0.016788  -0.000834
    15  H    0.436095  -0.074458   0.014315  -0.001004   0.000037  -0.000001
    16  H   -0.074462   0.436094  -0.068847   0.015053  -0.000463   0.000009
    17  H    0.014367  -0.075172   0.440500  -0.067339  -0.022971   0.000733
    18  H   -0.000015   0.000581  -0.019643  -0.073765   0.441409  -0.073749
    19  H   -0.000000  -0.000000  -0.000027   0.000733  -0.022962  -0.067371
    20  H    0.000000   0.000000  -0.000000   0.000009  -0.000464   0.015057
    21  H    0.000000   0.000000  -0.000000  -0.000001   0.000037  -0.001006
    22  H   -0.000000  -0.000000  -0.000000  -0.000026  -0.000270   0.015814
    23  H    0.000583  -0.000015  -0.000292   0.016380  -0.001804   0.016384
    24  H   -0.075168   0.014368  -0.001782   0.015817  -0.000269  -0.000026
               7          8          9         10         11         12
     1  C   -0.000003   0.000000  -0.000000   0.000010  -0.001227   0.017846
     2  C    0.000010  -0.000000   0.000000  -0.000003   0.000168  -0.001230
     3  C   -0.000464   0.000010  -0.000003   0.000067  -0.000836   0.016785
     4  C    0.016365  -0.001226   0.000168  -0.000836  -0.105268  -0.004454
     5  C   -0.118967   0.017843  -0.001231   0.016797  -0.004395  -0.091294
     6  C    0.269235   0.090803  -0.126054   0.012956   0.100930  -0.004436
     7  C    5.194897   0.292473   0.097044  -0.130021   0.012914   0.016787
     8  C    0.292473   5.121800   0.199211   0.097085  -0.126088  -0.001232
     9  C    0.097044   0.199211   5.121654   0.292560   0.090746   0.017837
    10  C   -0.130021   0.097085   0.292560   5.194987   0.269128  -0.118971
    11  C    0.012914  -0.126088   0.090746   0.269128   5.384817   0.289018
    12  C    0.016787  -0.001232   0.017837  -0.118971   0.289018   5.380563
    13  C   -0.000839   0.000168  -0.001227   0.016371   0.092915   0.288921
    14  C    0.000067  -0.000003   0.000010  -0.000465   0.016360  -0.118921
    15  H   -0.000000   0.000000   0.000000  -0.000000   0.000009  -0.000463
    16  H   -0.000000   0.000000   0.000000  -0.000000  -0.000001   0.000037
    17  H   -0.000027  -0.000000  -0.000000  -0.000000  -0.000026  -0.000269
    18  H   -0.019648   0.000581  -0.000015  -0.000293   0.016383  -0.001800
    19  H    0.440529  -0.075160   0.014373  -0.001784   0.015820  -0.000269
    20  H   -0.068834   0.436082  -0.074483   0.014315  -0.001003   0.000037
    21  H    0.014316  -0.074502   0.436118  -0.068836   0.015061  -0.000463
    22  H   -0.001781   0.014376  -0.075129   0.440501  -0.067389  -0.022956
    23  H   -0.000292  -0.000015   0.000582  -0.019646  -0.073753   0.441490
    24  H   -0.000000  -0.000000  -0.000000  -0.000027   0.000736  -0.022961
              13         14         15         16         17         18
     1  C    0.090769   0.292476   0.436095  -0.074462   0.014367  -0.000015
     2  C   -0.126070   0.097045  -0.074458   0.436094  -0.075172   0.000581
     3  C    0.012949  -0.130000   0.014315  -0.068847   0.440500  -0.019643
     4  C    0.100852   0.012960  -0.001004   0.015053  -0.067339  -0.073765
     5  C   -0.004431   0.016788   0.000037  -0.000463  -0.022971   0.441409
     6  C   -0.105288  -0.000834  -0.000001   0.000009   0.000733  -0.073749
     7  C   -0.000839   0.000067  -0.000000  -0.000000  -0.000027  -0.019648
     8  C    0.000168  -0.000003   0.000000   0.000000  -0.000000   0.000581
     9  C   -0.001227   0.000010   0.000000   0.000000  -0.000000  -0.000015
    10  C    0.016371  -0.000465  -0.000000  -0.000000  -0.000000  -0.000293
    11  C    0.092915   0.016360   0.000009  -0.000001  -0.000026   0.016383
    12  C    0.288921  -0.118921  -0.000463   0.000037  -0.000269  -0.001800
    13  C    5.385080   0.269158   0.015052  -0.001005   0.015827   0.016389
    14  C    0.269158   5.194808  -0.068853   0.014316  -0.001782  -0.000293
    15  H    0.015052  -0.068853   0.706462  -0.012428  -0.000295  -0.000001
    16  H   -0.001005   0.014316  -0.012428   0.706462  -0.013742  -0.000011
    17  H    0.015827  -0.001782  -0.000295  -0.013742   0.717817   0.006946
    18  H    0.016389  -0.000293  -0.000001  -0.000011   0.006946   0.727645
    19  H   -0.000026  -0.000000   0.000000  -0.000000   0.000001   0.006943
    20  H   -0.000001  -0.000000   0.000000  -0.000000  -0.000000  -0.000011
    21  H    0.000009  -0.000000  -0.000000   0.000000   0.000000  -0.000001
    22  H    0.000734  -0.000027  -0.000000   0.000000   0.000000   0.000010
    23  H   -0.073804  -0.019631  -0.000011  -0.000001   0.000010   0.000029
    24  H   -0.067362   0.440532  -0.013740  -0.000295   0.000031   0.000010
              19         20         21         22         23         24
     1  C   -0.000000   0.000000   0.000000  -0.000000   0.000583  -0.075168
     2  C   -0.000000   0.000000   0.000000  -0.000000  -0.000015   0.014368
     3  C   -0.000027  -0.000000  -0.000000  -0.000000  -0.000292  -0.001782
     4  C    0.000733   0.000009  -0.000001  -0.000026   0.016380   0.015817
     5  C   -0.022962  -0.000464   0.000037  -0.000270  -0.001804  -0.000269
     6  C   -0.067371   0.015057  -0.001006   0.015814   0.016384  -0.000026
     7  C    0.440529  -0.068834   0.014316  -0.001781  -0.000292  -0.000000
     8  C   -0.075160   0.436082  -0.074502   0.014376  -0.000015  -0.000000
     9  C    0.014373  -0.074483   0.436118  -0.075129   0.000582  -0.000000
    10  C   -0.001784   0.014315  -0.068836   0.440501  -0.019646  -0.000027
    11  C    0.015820  -0.001003   0.015061  -0.067389  -0.073753   0.000736
    12  C   -0.000269   0.000037  -0.000463  -0.022956   0.441490  -0.022961
    13  C   -0.000026  -0.000001   0.000009   0.000734  -0.073804  -0.067362
    14  C   -0.000000  -0.000000  -0.000000  -0.000027  -0.019631   0.440532
    15  H    0.000000   0.000000  -0.000000  -0.000000  -0.000011  -0.013740
    16  H   -0.000000  -0.000000   0.000000   0.000000  -0.000001  -0.000295
    17  H    0.000001  -0.000000   0.000000   0.000000   0.000010   0.000031
    18  H    0.006943  -0.000011  -0.000001   0.000010   0.000029   0.000010
    19  H    0.717816  -0.013744  -0.000295   0.000031   0.000010   0.000000
    20  H   -0.013744   0.706479  -0.012431  -0.000295  -0.000001   0.000000
    21  H   -0.000295  -0.012431   0.706484  -0.013749  -0.000011  -0.000000
    22  H    0.000031  -0.000295  -0.013749   0.717817   0.006941   0.000001
    23  H    0.000010  -0.000001  -0.000011   0.006941   0.727615   0.006936
    24  H    0.000000   0.000000  -0.000000   0.000001   0.006936   0.717797
 Mulliken charges:
               1
     1  C    0.007778
     2  C    0.007798
     3  C   -0.013711
     4  C    0.075027
     5  C   -0.079698
     6  C    0.074967
     7  C   -0.013762
     8  C    0.007795
     9  C    0.007839
    10  C   -0.013895
    11  C    0.074981
    12  C   -0.079600
    13  C    0.074857
    14  C   -0.013713
    15  H   -0.000715
    16  H   -0.000715
    17  H   -0.014608
    18  H   -0.027683
    19  H   -0.014619
    20  H   -0.000713
    21  H   -0.000730
    22  H   -0.014601
    23  H   -0.027682
    24  H   -0.014597
 Sum of Mulliken charges =  -0.00000
 Mulliken charges with hydrogens summed into heavy atoms:
               1
     1  C    0.007063
     2  C    0.007084
     3  C   -0.028318
     4  C    0.075027
     5  C   -0.107381
     6  C    0.074967
     7  C   -0.028381
     8  C    0.007083
     9  C    0.007109
    10  C   -0.028496
    11  C    0.074981
    12  C   -0.107282
    13  C    0.074857
    14  C   -0.028310
 Electronic spatial extent (au):  <R**2>=           2887.1081
 Charge=             -0.0000 electrons
 Dipole moment (field-independent basis, Debye):
    X=             -0.0001    Y=             -0.0003    Z=             -0.0000  Tot=              0.0003
 Quadrupole moment (field-independent basis, Debye-Ang):
   XX=            -70.8004   YY=            -71.5654   ZZ=            -87.0561
   XY=              0.0004   XZ=              0.0000   YZ=              0.0000
 Traceless Quadrupole moment (field-independent basis, Debye-Ang):
   XX=              5.6736   YY=              4.9086   ZZ=            -10.5821
   XY=              0.0004   XZ=              0.0000   YZ=              0.0000
 Octapole moment (field-independent basis, Debye-Ang**2):
  XXX=              0.0065  YYY=             -0.0031  ZZZ=             -0.0000  XYY=             -0.0052
  XXY=             -0.0038  XXZ=             -0.0000  XZZ=             -0.0005  YZZ=              0.0000
  YYZ=             -0.0000  XYZ=             -0.0000
 Hexadecapole moment (field-independent basis, Debye-Ang**3):
 XXXX=          -2870.0060 YYYY=           -707.1997 ZZZZ=            -95.1936 XXXY=              0.0198
 XXXZ=              0.0000 YYYX=             -0.0017 YYYZ=              0.0000 ZZZX=             -0.0000
 ZZZY=             -0.0000 XXYY=           -607.8870 XXZZ=           -603.3191 YYZZ=           -158.2011
 XXYZ=              0.0000 YYXZ=              0.0000 ZZXY=              0.0002
 N-N= 7.617899870515D+02 E-N=-2.769725270627D+03  KE= 5.323544274365D+02
 Leave Link  601 at Tue May 10 16:59:32 2022, MaxMem=  6442450944 cpu:               1.1 elap:               0.1
 (Enter /home1/apps/gaussian/16rA.03/g16/l9999.exe)
 Electronic transition elements 
                 1             2             3             4             5 
      1  -0.538539D+03 -0.538486D+03 -0.538485D+03 -0.538478D+03 -0.538472D+03
      2   0.000000D+00  0.000000D+00  0.311447D-03  0.000000D+00  0.000000D+00
      3   0.000000D+00  0.000000D+00  0.892514D+00  0.000000D+00  0.000000D+00
      4   0.000000D+00  0.000000D+00  0.000000D+00  0.000000D+00  0.000000D+00
      5   0.000000D+00  0.000000D+00 -0.368908D-04  0.000000D+00  0.000000D+00
      6   0.000000D+00  0.000000D+00 -0.125898D+00  0.000000D+00  0.000000D+00
      7   0.000000D+00  0.000000D+00  0.000000D+00  0.000000D+00  0.000000D+00
      8   0.000000D+00  0.000000D+00  0.000000D+00  0.000000D+00  0.000000D+00
      9   0.000000D+00  0.000000D+00  0.000000D+00  0.000000D+00  0.000000D+00
     10   0.000000D+00  0.000000D+00 -0.343964D-03  0.000000D+00  0.000000D+00
     11   0.000000D+00  0.000000D+00 -0.466506D-04  0.000000D+00  0.000000D+00
     12   0.000000D+00  0.000000D+00 -0.101461D-04  0.000000D+00  0.000000D+00
     13   0.000000D+00  0.000000D+00  0.000000D+00  0.000000D+00  0.000000D+00
     14   0.000000D+00  0.000000D+00  0.156693D-03  0.000000D+00  0.000000D+00
     15   0.000000D+00  0.000000D+00  0.000000D+00  0.000000D+00  0.000000D+00
     16   0.000000D+00  0.000000D+00  0.000000D+00  0.000000D+00  0.000000D+00
                 6             7             8             9            10 
      1  -0.538465D+03 -0.538456D+03 -0.538444D+03 -0.538437D+03 -0.538434D+03
      2  -0.943965D-01  0.000000D+00  0.000000D+00  0.000000D+00  0.000000D+00
      3  -0.178335D-04  0.000000D+00  0.000000D+00  0.000000D+00  0.000000D+00
      4   0.000000D+00  0.000000D+00  0.000000D+00  0.000000D+00  0.000000D+00
      5   0.631793D-02  0.000000D+00  0.000000D+00  0.000000D+00  0.000000D+00
      6   0.221008D-05  0.000000D+00  0.000000D+00  0.000000D+00  0.000000D+00
      7   0.000000D+00  0.000000D+00  0.000000D+00  0.000000D+00  0.000000D+00
      8   0.000000D+00  0.000000D+00  0.000000D+00  0.000000D+00  0.000000D+00
      9   0.000000D+00  0.000000D+00  0.000000D+00  0.000000D+00  0.000000D+00
     10  -0.212674D-04  0.000000D+00  0.000000D+00  0.000000D+00  0.000000D+00
     11  -0.426499D-04  0.000000D+00  0.000000D+00  0.000000D+00  0.000000D+00
     12  -0.648760D-05  0.000000D+00  0.000000D+00  0.000000D+00  0.000000D+00
     13   0.896759D-05  0.000000D+00  0.000000D+00  0.000000D+00  0.000000D+00
     14  -0.515656D-05  0.000000D+00  0.000000D+00  0.000000D+00  0.000000D+00
     15   0.000000D+00  0.000000D+00  0.000000D+00  0.000000D+00  0.000000D+00
     16   0.000000D+00  0.000000D+00  0.000000D+00  0.000000D+00  0.000000D+00
                11            12            13            14            15 
      1  -0.538433D+03 -0.538426D+03 -0.538414D+03 -0.538414D+03 -0.538411D+03
      2   0.102135D-03 -0.567094D-03  0.000000D+00 -0.385556D+01  0.000000D+00
      3   0.674637D-04  0.716224D-04  0.000000D+00  0.165395D-03  0.000000D+00
      4   0.000000D+00  0.000000D+00  0.000000D+00  0.000000D+00  0.000000D+00
      5  -0.153538D-04  0.973568D-04  0.000000D+00  0.715337D+00  0.000000D+00
      6  -0.112832D-04 -0.863816D-05  0.000000D+00 -0.350998D-04  0.000000D+00
      7   0.000000D+00  0.000000D+00  0.000000D+00  0.000000D+00  0.000000D+00
      8   0.000000D+00  0.000000D+00  0.000000D+00  0.000000D+00  0.000000D+00
      9   0.000000D+00  0.000000D+00  0.000000D+00  0.000000D+00  0.000000D+00
     10   0.103708D+00  0.159056D+01  0.000000D+00 -0.327878D-03  0.000000D+00
     11   0.236589D-04  0.832625D-04  0.000000D+00 -0.414300D-03  0.000000D+00
     12   0.174094D-04  0.160041D-05  0.000000D+00  0.118096D-04  0.000000D+00
     13   0.103764D-05  0.117449D-05  0.000000D+00  0.000000D+00  0.000000D+00
     14   0.257200D+00  0.746555D+00  0.000000D+00 -0.153949D-03  0.000000D+00
     15   0.000000D+00  0.000000D+00  0.000000D+00  0.000000D+00  0.000000D+00
     16   0.000000D+00  0.000000D+00  0.000000D+00  0.000000D+00  0.000000D+00
                16            17            18            19            20 
      1  -0.538409D+03 -0.538407D+03 -0.538404D+03 -0.538400D+03 -0.538399D+03
      2  -0.465597D-03 -0.165768D-03  0.000000D+00  0.000000D+00  0.000000D+00
      3   0.817209D-02  0.146533D-03  0.000000D+00  0.000000D+00  0.000000D+00
      4   0.000000D+00  0.000000D+00  0.000000D+00  0.000000D+00  0.000000D+00
      5   0.884969D-04  0.287619D-04  0.000000D+00  0.000000D+00  0.000000D+00
      6  -0.216059D-02 -0.300308D-04  0.000000D+00  0.000000D+00  0.000000D+00
      7   0.000000D+00  0.000000D+00  0.000000D+00  0.000000D+00  0.000000D+00
      8   0.000000D+00  0.000000D+00  0.000000D+00  0.000000D+00  0.000000D+00
      9   0.000000D+00  0.000000D+00  0.000000D+00  0.000000D+00  0.000000D+00
     10  -0.284823D-03 -0.111621D-03  0.000000D+00  0.000000D+00  0.000000D+00
     11  -0.295594D-04  0.148377D+00  0.000000D+00  0.000000D+00  0.000000D+00
     12   0.169891D-04 -0.845881D-01  0.000000D+00  0.000000D+00  0.000000D+00
     13   0.000000D+00  0.355770D-02  0.000000D+00  0.000000D+00  0.000000D+00
     14  -0.134334D-03 -0.391457D-05  0.000000D+00  0.000000D+00  0.000000D+00
     15   0.000000D+00  0.000000D+00  0.000000D+00  0.000000D+00  0.000000D+00
     16   0.000000D+00  0.000000D+00  0.000000D+00  0.000000D+00  0.000000D+00
                21            22            23            24            25 
      1  -0.538398D+03 -0.538395D+03 -0.538390D+03 -0.538389D+03 -0.538387D+03
      2   0.000000D+00  0.000000D+00  0.000000D+00 -0.368287D-03  0.000000D+00
      3   0.000000D+00  0.000000D+00  0.000000D+00 -0.883891D+00  0.000000D+00
      4  -0.206998D-01  0.000000D+00  0.000000D+00  0.000000D+00  0.158876D-04
      5   0.000000D+00  0.000000D+00  0.000000D+00  0.775101D-04  0.000000D+00
      6   0.000000D+00  0.000000D+00  0.000000D+00  0.197867D+00  0.000000D+00
      7   0.280176D-02  0.000000D+00  0.000000D+00  0.000000D+00  0.170782D-05
      8  -0.221473D-03  0.000000D+00  0.000000D+00  0.000000D+00  0.120743D-03
      9   0.852858D-04  0.000000D+00  0.000000D+00  0.000000D+00 -0.145017D-03
     10   0.000000D+00  0.000000D+00  0.000000D+00 -0.103583D-02  0.000000D+00
     11   0.000000D+00  0.000000D+00  0.000000D+00 -0.418374D-04  0.000000D+00
     12   0.000000D+00  0.000000D+00  0.000000D+00 -0.447482D-04  0.000000D+00
     13   0.000000D+00  0.000000D+00  0.000000D+00 -0.616302D-05  0.000000D+00
     14   0.000000D+00  0.000000D+00  0.000000D+00 -0.233488D-03  0.000000D+00
     15  -0.362206D-04  0.000000D+00  0.000000D+00  0.000000D+00  0.644731D-04
     16  -0.324761D-04  0.000000D+00  0.000000D+00  0.000000D+00 -0.160012D-05
                26            27            28            29            30 
      1  -0.538379D+03 -0.538378D+03 -0.538374D+03 -0.538369D+03 -0.538368D+03
      2  -0.684589D-04  0.321980D-03  0.000000D+00 -0.319912D-01 -0.255285D-03
      3   0.564553D-04  0.148010D+00  0.000000D+00 -0.101399D-04  0.171109D-03
      4   0.000000D+00  0.000000D+00 -0.148481D-04  0.000000D+00  0.000000D+00
      5   0.123853D-04 -0.710486D-04  0.000000D+00  0.470375D-02  0.583413D-04
      6  -0.117745D-04 -0.364624D-01  0.000000D+00  0.292555D-05 -0.418130D-04
      7   0.000000D+00  0.000000D+00  0.128362D-05  0.000000D+00  0.000000D+00
      8   0.000000D+00  0.000000D+00  0.152529D-03  0.000000D+00  0.000000D+00
      9   0.000000D+00  0.000000D+00 -0.329719D+00  0.122465D-05  0.000000D+00
     10   0.405270D-05  0.260887D-03  0.000000D+00 -0.428087D-04  0.473061D-04
     11   0.439195D+00  0.303063D-03  0.000000D+00 -0.113436D-02 -0.849082D+00
     12  -0.175401D+00 -0.129093D-03  0.000000D+00 -0.766450D-04 -0.199937D+00
     13  -0.232516D-01 -0.154911D-04  0.000000D+00 -0.918525D-05  0.285135D-02
     14  -0.388052D-04  0.325922D-03  0.000000D+00  0.221126D-04 -0.263972D-04
     15   0.000000D+00  0.000000D+00  0.134325D+00  0.000000D+00  0.000000D+00
     16   0.000000D+00  0.000000D+00  0.110265D-04  0.000000D+00  0.000000D+00

 Test job not archived.
 1\1\GINC-C505-054\SP\RLC-wHPBE TD-FC\def2SVP\C14H10\TG878040\10-May-20
 22\0\\#P LC-wHPBE/Def2SVP iop(3/107=0156500000, 3/108=0156500000) td=(
 50-50,nstates=15)\\H10 C14\\0,1\C,0,3.676656,-0.714935,0.\C,0,3.67669,
 0.714834,0.\C,0,2.489464,1.411883,0.\C,0,1.229278,0.724045,0.\C,0,0.00
 0004,1.408277,0.\C,0,-1.229396,0.724084,0.\C,0,-2.489417,1.411907,0.\C
 ,0,-3.676677,0.714716,0.\C,0,-3.676682,-0.714835,0.\C,0,-2.489285,-1.4
 11843,0.\C,0,-1.229259,-0.724008,0.\C,0,0.000048,-1.408328,0.\C,0,1.22
 9279,-0.723861,0.\C,0,2.489347,-1.411893,0.\H,0,4.634018,-1.256556,0.\
 H,0,4.634033,1.256485,0.\H,0,2.486862,2.512482,0.\H,0,-0.000015,2.5095
 53,0.\H,0,-2.486992,2.512476,0.\H,0,-4.633997,1.256467,0.\H,0,-4.63390
 7,-1.25667,0.\H,0,-2.487009,-2.512449,-0.000001\H,0,-0.000053,-2.50955
 2,0.\H,0,2.486753,-2.512488,0.\\Version=ES64L-G16RevA.03\State=1-A\HF=
 -538.6059763\RMSD=5.918e-09\PG=C01 [X(C14H10)]\\@


 ... A MOLECULAR SYSTEM ... (PASSES) ... FROM ONE STATE OF EQUILIBRIUM 
 TO ANOTHER ... BY MEANS OF ALL POSSIBLE INTERMEDIATE PATHS, 
 BUT THE PATH MOST ECONOMICAL OF ENERGY WILL BE THE MORE OFTEN TRAVELED.

                      -- HENRY EYRING, 1945
 Job cpu time:       0 days  0 hours 58 minutes  6.0 seconds.
 Elapsed time:       0 days  0 hours  3 minutes 38.7 seconds.
 File lengths (MBytes):  RWF=    968 Int=      0 D2E=      0 Chk=     64 Scr=      1
 Normal termination of Gaussian 16 at Tue May 10 16:59:32 2022.
